LAMMPS data file via write_data, version 12 Dec 2018, timestep = 1000034

3299 atoms
5 atom types
1200 bonds
1 bond types

-2.1602310798108881e-01 3.1302023107849749e+01 xlo xhi
-2.0788558435525317e-01 3.0122885584219077e+01 ylo yhi
-1.6261148834601258e-01 2.3562611488240726e+01 zlo zhi

Masses

1 6.941
2 55.845
3 30.97
4 15.68
5 0.32

Atoms # full

1 1 4 9.0149999999999997e-01 1.4908993096095584e+00 2.7500459306208397e-02 1.1531630118491856e+00 0 0 0
3 2 4 9.0149999999999997e-01 1.5010014419837654e+00 2.4063853064592946e+00 1.3561054815213587e+00 0 0 0
5 3 4 9.0149999999999997e-01 1.1637067584886143e+00 1.1196565419258588e+00 3.2793740742981221e+00 0 0 0
7 4 4 9.0149999999999997e-01 3.8478554607893400e-02 4.4263636069760111e+00 2.9602954382835800e+00 0 0 0
9 5 4 9.0149999999999997e-01 4.6879060577656935e+00 1.4288326399972304e+00 5.6016561111509788e-01 0 0 0
11 6 4 9.0149999999999997e-01 3.8852305872162312e+00 4.5621230272903723e+00 9.0229698410716064e-01 0 0 0
13 7 4 9.0149999999999997e-01 3.4065063136675793e+00 5.5822211070014136e+00 3.5454906098237919e+00 0 0 0
15 8 4 9.0149999999999997e-01 3.0607084607088062e+00 3.4152703061182921e+00 3.8736139803068044e+00 0 0 0
17 9 4 9.0149999999999997e-01 6.7482138646731729e+00 2.5927563461234571e+00 9.2187827691742097e-01 0 0 0
19 10 4 9.0149999999999997e-01 6.8780852351716657e+00 3.5290657637442058e-01 6.7342697713898692e-01 0 0 0
21 11 4 9.0149999999999997e-01 6.3146518821219031e+00 1.6196711308206773e+00 3.5120328281825284e+00 0 0 0
23 12 4 9.0149999999999997e-01 5.3198995023034605e+00 4.2910663470704655e+00 3.9030751329126954e+00 0 0 0
481 241 4 9.0149999999999997e-01 1.3705882087449486e+00 1.2862875137713825e-01 5.9253213041375163e+00 0 0 0
483 242 4 9.0149999999999997e-01 1.6127661426499977e+00 2.3331767147979323e+00 6.2416873781935172e+00 0 0 0
489 245 4 9.0149999999999997e-01 4.7803318974038662e+00 1.3278162774225704e+00 5.3727394396368560e+00 0 0 0
491 246 4 9.0149999999999997e-01 3.8073635640789245e+00 4.6500334416218898e+00 5.7796652398868735e+00 0 0 0
497 249 4 9.0149999999999997e-01 6.7461744769392107e+00 2.5326646979527552e+00 5.7157095823567499e+00 0 0 0
499 250 4 9.0149999999999997e-01 6.8637808362084769e+00 2.8669403167783025e-01 5.4933321165956439e+00 0 0 0
97 49 4 9.0149999999999997e-01 1.6015927117369886e+00 6.1950324801444321e+00 1.2024500637530680e+00 0 0 0
115 58 4 9.0149999999999997e-01 6.9296998283150453e+00 6.4136328453013487e+00 8.2466149418589096e-01 0 0 0
577 289 4 9.0149999999999997e-01 1.4373980737087049e+00 6.1218207887103153e+00 5.9370469201450886e+00 0 0 0
595 298 4 9.0149999999999997e-01 6.9036699228597733e+00 6.3896435843994519e+00 5.3600512637875415e+00 0 0 0
2 1 5 -2.8942000000000001e+00 1.4406658713118046e+00 1.2185301273092264e-01 1.2008883110187660e+00 0 0 0
4 2 5 -2.8942000000000001e+00 1.4518302965721859e+00 2.3005803268685008e+00 1.3976975661065314e+00 0 0 0
6 3 5 -2.8942000000000001e+00 1.1219923497156283e+00 1.1166215963866986e+00 3.1556453771666151e+00 0 0 0
8 4 5 -2.8942000000000001e+00 -7.6237545502241155e-02 4.4156274634809503e+00 2.9328443700690898e+00 0 0 0
10 5 5 -2.8942000000000001e+00 4.8070226469190525e+00 1.4233177953268872e+00 5.1347646507468658e-01 0 0 0
12 6 5 -2.8942000000000001e+00 3.8901095923874305e+00 4.5496797158487396e+00 7.7413168761915052e-01 0 0 0
14 7 5 -2.8942000000000001e+00 3.4505592366518480e+00 5.5007002506601577e+00 3.6101853967536357e+00 0 0 0
16 8 5 -2.8942000000000001e+00 3.1418558943295802e+00 3.4968921902229018e+00 3.9114263797360955e+00 0 0 0
18 9 5 -2.8942000000000001e+00 6.6961356701860240e+00 2.5230627034244431e+00 8.5834134489426694e-01 0 0 0
20 10 5 -2.8942000000000001e+00 6.8149499397707194e+00 4.4925911544813057e-01 6.1735534895925404e-01 0 0 0
22 11 5 -2.8942000000000001e+00 6.3143185910643904e+00 1.5993941529670930e+00 3.6462630333482973e+00 0 0 0
24 12 5 -2.8942000000000001e+00 5.2121460209499473e+00 4.3053675188516358e+00 3.9439436200926785e+00 0 0 0
482 241 5 -2.8942000000000001e+00 1.3213991584169831e+00 2.1159709507951113e-01 5.9833098951214687e+00 0 0 0
484 242 5 -2.8942000000000001e+00 1.5483851691235815e+00 2.2418956729107387e+00 6.2860736505123516e+00 0 0 0
490 245 5 -2.8942000000000001e+00 4.8900803996460116e+00 1.3250370241023002e+00 5.3350170893780886e+00 0 0 0
492 246 5 -2.8942000000000001e+00 3.8178702537448119e+00 4.6405410364037145e+00 5.6513838194127981e+00 0 0 0
498 249 5 -2.8942000000000001e+00 6.7034456173919281e+00 2.4466096838690081e+00 5.6535047745534319e+00 0 0 0
500 250 5 -2.8942000000000001e+00 6.8056363721342645e+00 3.8260314607068546e-01 5.4402184908148161e+00 0 0 0
98 49 5 -2.8942000000000001e+00 1.5389997979576222e+00 6.2791657709173103e+00 1.2605058793313859e+00 0 0 0
116 58 5 -2.8942000000000001e+00 6.8651596774480819e+00 6.4935450777375356e+00 7.6374182180401562e-01 0 0 0
578 289 5 -2.8942000000000001e+00 1.3775342266569752e+00 6.2124913280203931e+00 5.9937525886877667e+00 0 0 0
596 298 5 -2.8942000000000001e+00 6.8506556263620677e+00 6.4810114906867264e+00 5.3132431184110267e+00 0 0 0
2404 1204 1 1.0000000000000000e+00 5.5551843953687117e+00 3.1893719808218988e+00 2.3026537482027254e+00 0 0 0
2408 1208 1 1.0000000000000000e+00 5.7019361915605540e+00 2.8780555239379546e+00 7.2190751883969115e+00 0 0 0
2423 1223 1 1.0000000000000000e+00 4.6756251037879251e+00 6.0293582870700329e+00 2.0612034860846591e+00 0 0 0
2427 1227 1 1.0000000000000000e+00 4.3772618269434318e+00 6.0307609939172764e+00 6.8192416765492672e+00 0 0 0
2700 1500 2 2.0000000000000000e+00 2.0940422833281316e+00 4.2976286789133242e+00 2.1404580936239976e+00 0 0 0
2701 1501 2 2.0000000000000000e+00 2.7758872891836761e+00 1.3752229107897231e+00 4.6206514237931557e+00 0 0 0
2704 1504 2 2.0000000000000000e+00 2.0268450054638194e+00 4.2419587597299273e+00 6.9852734686079874e+00 0 0 0
2706 1506 2 2.0000000000000000e+00 7.2172122532953731e+00 4.4475568421081464e+00 4.7064593825817029e+00 0 0 0
3000 1800 3 4.9707999999999997e+00 8.4470058756401301e-01 1.2258749087404501e+00 1.8693520990983092e+00 0 0 0
3001 1801 3 4.9707999999999997e+00 3.9506541856418558e+00 4.4752726808280139e+00 4.3551631050160289e+00 0 0 0
3002 1802 3 4.9707999999999997e+00 6.1078903585894606e+00 1.4811936646033439e+00 1.1962350721670068e-01 0 0 0
3004 1804 3 4.9707999999999997e+00 7.7986735738224922e-01 1.2116137129296256e+00 6.7057275964640271e+00 0 0 0
3006 1806 3 4.9707999999999997e+00 6.1779648464325838e+00 1.4185242145574823e+00 4.9352145352220687e+00 0 0 0
101 51 4 9.0149999999999997e-01 8.7525446567816201e-01 7.1616663069996473e+00 3.3715552517754399e+00 0 0 0
102 51 5 -2.8942000000000001e+00 8.9757744675733808e-01 7.1665067673453056e+00 3.2298317900327382e+00 0 0 0
2425 1225 1 1.0000000000000000e+00 3.3544587192624109e-01 5.5431107007193017e+00 4.3596158439929091e+00 0 0 0
3024 1824 3 4.9707999999999997e+00 7.7534066490324605e-01 7.2869839659937350e+00 6.6338505483680326e+00 0 0 0
2702 1502 2 2.0000000000000000e+00 7.3143744944838929e+00 4.4497148759019440e+00 -8.6730410892639026e-02 0 0 0
3020 1820 3 4.9707999999999997e+00 9.1475302892409371e-01 7.2957548294171595e+00 1.9217846736551096e+00 0 0 0
2407 1207 1 1.0000000000000000e+00 4.8228627680163134e+00 8.7559114571795660e-02 6.6709889485917442e+00 0 0 0
25 13 4 9.0149999999999997e-01 9.9649941840347100e+00 1.2673913796374339e+00 1.2531244599101505e+00 0 0 0
27 14 4 9.0149999999999997e-01 9.1123644008474241e+00 4.5512961433847359e+00 1.0654987371054794e+00 0 0 0
29 15 4 9.0149999999999997e-01 8.4615520322245832e+00 3.3460363825970991e+00 3.0887660489929378e+00 0 0 0
31 16 4 9.0149999999999997e-01 8.6951105321860762e+00 5.7083676251358657e+00 3.1778884205265614e+00 0 0 0
505 253 4 9.0149999999999997e-01 9.9461147474694851e+00 1.3949873823519645e+00 6.2364889107174264e+00 0 0 0
507 254 4 9.0149999999999997e-01 9.0688370210679778e+00 4.5151657129249507e+00 5.9326115277935729e+00 0 0 0
33 17 4 9.0149999999999997e-01 1.2207642123294349e+01 3.8660628539983288e-01 1.1690575637697032e+00 0 0 0
35 18 4 9.0149999999999997e-01 1.1916068575869041e+01 2.5802802131968017e+00 1.0626430794405848e+00 0 0 0
37 19 4 9.0149999999999997e-01 1.1431554858571294e+01 1.5162556655347101e+00 3.1999604708000295e+00 0 0 0
39 20 4 9.0149999999999997e-01 1.0654841874016331e+01 4.2669650522838136e+00 2.9254623183743189e+00 0 0 0
41 21 4 9.0149999999999997e-01 1.5193322695533993e+01 1.1989715360639421e+00 5.2146563215671904e-01 0 0 0
43 22 4 9.0149999999999997e-01 1.4412550598169508e+01 4.5202361517573006e+00 1.0047789151719571e+00 0 0 0
45 23 4 9.0149999999999997e-01 1.3990849476329011e+01 5.6313712034244494e+00 3.6145076309684141e+00 0 0 0
47 24 4 9.0149999999999997e-01 1.3631364532640216e+01 3.2995878949521193e+00 3.7238875891500895e+00 0 0 0
513 257 4 9.0149999999999997e-01 1.1958055484496706e+01 2.5481985293239978e-01 5.8872060435725864e+00 0 0 0
515 258 4 9.0149999999999997e-01 1.2032786276624741e+01 2.4892678066384719e+00 5.8306077365176154e+00 0 0 0
521 261 4 9.0149999999999997e-01 1.5115265623019644e+01 1.3463197309147998e+00 5.3461217350649983e+00 0 0 0
523 262 4 9.0149999999999997e-01 1.4483895016244295e+01 4.3975968636484053e+00 5.6911170454303335e+00 0 0 0
129 65 4 9.0149999999999997e-01 1.2188660405502791e+01 6.4296032703872452e+00 1.5191270780783699e+00 0 0 0
609 305 4 9.0149999999999997e-01 1.2223490713548363e+01 6.3784691856088660e+00 6.0526393353219632e+00 0 0 0
26 13 5 -2.8942000000000001e+00 1.0071752191479382e+01 1.2733798826655314e+00 1.2996131756553067e+00 0 0 0
28 14 5 -2.8942000000000001e+00 9.1080334183290912e+00 4.5501975455026740e+00 1.1968302065824743e+00 0 0 0
30 15 5 -2.8942000000000001e+00 8.5277310371556663e+00 3.4471094499367880e+00 3.0329491817403142e+00 0 0 0
32 16 5 -2.8942000000000001e+00 8.7350093619781166e+00 5.6070107245933052e+00 3.1338506564667918e+00 0 0 0
506 253 5 -2.8942000000000001e+00 1.0061940652320937e+01 1.3832753475713275e+00 6.2707155215196249e+00 0 0 0
508 254 5 -2.8942000000000001e+00 9.0703476745007290e+00 4.5193734230787239e+00 6.0531575130638879e+00 0 0 0
34 17 5 -2.8942000000000001e+00 1.2121476483705154e+01 4.7020079414113647e-01 1.2270513088727422e+00 0 0 0
36 18 5 -2.8942000000000001e+00 1.1863203835438229e+01 2.4967014402453533e+00 1.1094945150730100e+00 0 0 0
38 19 5 -2.8942000000000001e+00 1.1423986297287588e+01 1.5091654510374573e+00 3.0711743133373588e+00 0 0 0
40 20 5 -2.8942000000000001e+00 1.0534454168172818e+01 4.2753405210597508e+00 2.8875281369321333e+00 0 0 0
42 21 5 -2.8942000000000001e+00 1.5316606849489538e+01 1.2016767436391567e+00 4.8231320074920603e-01 0 0 0
44 22 5 -2.8942000000000001e+00 1.4414615535064764e+01 4.5065885004817723e+00 8.7200586044614936e-01 0 0 0
46 23 5 -2.8942000000000001e+00 1.4027519196740890e+01 5.5283320161890730e+00 3.6635147994717268e+00 0 0 0
48 24 5 -2.8942000000000001e+00 1.3706061634269631e+01 3.3969024512019046e+00 3.7646475024757833e+00 0 0 0
514 257 5 -2.8942000000000001e+00 1.1918176784732996e+01 3.3961877705416177e-01 5.9636826118250728e+00 0 0 0
516 258 5 -2.8942000000000001e+00 1.1982710229480382e+01 2.4088071351085549e+00 5.8964312350564567e+00 0 0 0
522 261 5 -2.8942000000000001e+00 1.5233235858988957e+01 1.3371375195777668e+00 5.3030427169873988e+00 0 0 0
524 262 5 -2.8942000000000001e+00 1.4478032154105280e+01 4.4061493313279527e+00 5.5663621546450717e+00 0 0 0
130 65 5 -2.8942000000000001e+00 1.2110271400677071e+01 6.5204401256582782e+00 1.5440899408092723e+00 0 0 0
610 305 5 -2.8942000000000001e+00 1.2155765979417676e+01 6.4781557583568317e+00 6.0882170871448862e+00 0 0 0
2506 1306 1 1.0000000000000000e+00 1.0811423189949846e+01 3.0202316846278592e+00 4.1474457220538561e+00 0 0 0
2525 1325 1 1.0000000000000000e+00 9.4921414436685954e+00 6.0987471368060424e+00 4.8234178079224739e+00 0 0 0
2703 1503 2 2.0000000000000000e+00 8.0907110284656714e+00 1.4632791443099649e+00 2.2490712031818334e+00 0 0 0
2707 1507 2 2.0000000000000000e+00 8.0510122894203953e+00 1.2709497601732633e+00 7.0355263179332326e+00 0 0 0
2800 1600 2 2.0000000000000000e+00 1.2518406751382361e+01 4.4667161391189332e+00 2.0420698497043910e+00 0 0 0
2801 1601 2 2.0000000000000000e+00 1.3259656798760419e+01 1.3640921405005841e+00 4.4066472801196976e+00 0 0 0
2804 1604 2 2.0000000000000000e+00 1.2536463634504404e+01 4.2745813537286281e+00 6.8134002274174472e+00 0 0 0
3003 1803 3 4.9707999999999997e+00 9.2265150974564563e+00 4.4501844722792905e+00 2.5076054524680047e+00 0 0 0
3007 1807 3 4.9707999999999997e+00 9.2578210502468927e+00 4.3916633258325390e+00 7.3192286751488247e+00 0 0 0
3100 1900 3 4.9707999999999997e+00 1.1323857121118730e+01 1.4026527650894975e+00 1.7149728850149761e+00 0 0 0
3101 1901 3 4.9707999999999997e+00 1.4496077916429073e+01 4.3863714487389975e+00 4.2254920708149166e+00 0 0 0
3104 1904 3 4.9707999999999997e+00 1.1350764617425984e+01 1.3937716036641634e+00 6.5962959821789706e+00 0 0 0
2521 1321 1 1.0000000000000000e+00 9.4519726575387875e+00 6.0848238788351088e+00 6.1731518143587211e-02 0 0 0
2527 1327 1 1.0000000000000000e+00 1.4853209892509021e+01 6.0106841074658846e+00 6.6215101155861396e+00 0 0 0
2523 1323 1 1.0000000000000000e+00 1.5325956099113650e+01 5.9366417945522549e+00 2.2250873227381236e+00 0 0 0
520 260 5 -2.8942000000000001e+00 1.0579606063722158e+01 4.1610861623458337e+00 7.6186664389838832e+00 0 0 0
519 260 4 9.0149999999999997e-01 1.0692839187407007e+01 4.1435913100701622e+00 7.6391605876094326e+00 0 0 0
2505 1305 1 1.0000000000000000e+00 9.7892299359572075e+00 8.7058888922116717e-02 4.6944985629668254e+00 0 0 0
602 301 5 -2.8942000000000001e+00 1.0140178502835377e+01 7.3299438645013604e+00 6.2383517839297493e+00 0 0 0
601 301 4 9.0149999999999997e-01 1.0034174235265498e+01 7.3254549280017471e+00 6.2122695257878195e+00 0 0 0
2501 1301 1 1.0000000000000000e+00 9.4087905335238453e+00 8.1769377067379412e-02 7.6185712091103669e-02 0 0 0
137 69 4 9.0149999999999997e-01 1.5302276459439582e+01 7.3097893998783707e+00 6.6585568231320102e-01 0 0 0
138 69 5 -2.8942000000000001e+00 1.5419598935122728e+01 7.3269613178908131e+00 6.2639081165463528e-01 0 0 0
2419 1219 1 1.0000000000000000e+00 4.4795236362736368e+00 -7.1756258534599104e-02 2.0902444560574192e+01 0 0 0
105 53 4 9.0149999999999997e-01 4.7226149855624993e+00 7.2905389737153810e+00 6.4554554602975045e-01 0 0 0
106 53 5 -2.8942000000000001e+00 4.8415340311287274e+00 7.3019393710074239e+00 6.0964624494384312e-01 0 0 0
585 293 4 9.0149999999999997e-01 4.7211317922336473e+00 7.3993750196523473e+00 5.2988500115834256e+00 0 0 0
586 293 5 -2.8942000000000001e+00 4.8386656489083046e+00 7.4132040254693381e+00 5.2583290764772173e+00 0 0 0
3026 1826 3 4.9707999999999997e+00 6.1167694799968180e+00 7.5557246285817188e+00 4.8617545453900002e+00 0 0 0
3022 1822 3 4.9707999999999997e+00 6.1100474556927633e+00 7.4596787603923236e+00 2.0747058636020227e-01 0 0 0
2721 1521 2 2.0000000000000000e+00 2.7659181028407280e+00 7.4996788026290089e+00 4.4722478285391976e+00 0 0 0
117 59 4 9.0149999999999997e-01 6.1529757146977238e+00 7.6553083304413541e+00 3.3803093025934161e+00 0 0 0
118 59 5 -2.8942000000000001e+00 6.1657295139484862e+00 7.6574837432263765e+00 3.5179773827785525e+00 0 0 0
99 50 4 9.0149999999999997e-01 1.7080305792990114e+00 8.4681673768786538e+00 1.4382457359548944e+00 0 0 0
103 52 4 9.0149999999999997e-01 2.2902341968426632e-01 1.0555104020607770e+01 2.9525697364543011e+00 0 0 0
107 54 4 9.0149999999999997e-01 3.8848177244219615e+00 1.0657708725372601e+01 1.0554828563589496e+00 0 0 0
109 55 4 9.0149999999999997e-01 3.3197841396805519e+00 1.1664310717603191e+01 3.5539597737731672e+00 0 0 0
111 56 4 9.0149999999999997e-01 3.2974386278595471e+00 9.3083257981069654e+00 3.5883127552570362e+00 0 0 0
113 57 4 9.0149999999999997e-01 6.6906259609851668e+00 8.6624575580019343e+00 8.9154326303536768e-01 0 0 0
119 60 4 9.0149999999999997e-01 5.3878707712442271e+00 1.0459134440344641e+01 3.8974776740289885e+00 0 0 0
579 290 4 9.0149999999999997e-01 1.4840514631491322e+00 8.4150431156759922e+00 6.0330257213156271e+00 0 0 0
587 294 4 9.0149999999999997e-01 3.8392336510116865e+00 1.0523692748370179e+01 5.6342422746797380e+00 0 0 0
593 297 4 9.0149999999999997e-01 6.8042820167930342e+00 8.6260082603623225e+00 5.6486251673391870e+00 0 0 0
193 97 4 9.0149999999999997e-01 1.4109021261541577e+00 1.2215037726532847e+01 1.1117668264183687e+00 0 0 0
195 98 4 9.0149999999999997e-01 1.6690576708579836e+00 1.4452903625063815e+01 1.3394184077230342e+00 0 0 0
197 99 4 9.0149999999999997e-01 1.1059962929218132e+00 1.3040482075784899e+01 3.2939286958540643e+00 0 0 0
201 101 4 9.0149999999999997e-01 4.7295500909973827e+00 1.3346317747903566e+01 4.5637095633617497e-01 0 0 0
209 105 4 9.0149999999999997e-01 6.6768168236119365e+00 1.4670251828976312e+01 8.5936635118972871e-01 0 0 0
211 106 4 9.0149999999999997e-01 6.9971728399486208e+00 1.2412540304715559e+01 6.2319035029321401e-01 0 0 0
213 107 4 9.0149999999999997e-01 6.1738956574989752e+00 1.3723791641695627e+01 3.3953709257602585e+00 0 0 0
673 337 4 9.0149999999999997e-01 1.4839262366658224e+00 1.2102670818135790e+01 5.9642830842711465e+00 0 0 0
675 338 4 9.0149999999999997e-01 1.5107438240093378e+00 1.4416278126371983e+01 5.8736567839829483e+00 0 0 0
681 341 4 9.0149999999999997e-01 4.6796410585577499e+00 1.3508897915645317e+01 5.3926265980273023e+00 0 0 0
689 345 4 9.0149999999999997e-01 6.6923583640971245e+00 1.4681395830539987e+01 5.5133061310729587e+00 0 0 0
691 346 4 9.0149999999999997e-01 6.8124036463768327e+00 1.2407932228163908e+01 5.3467073950427624e+00 0 0 0
100 50 5 -2.8942000000000001e+00 1.6351683126777536e+00 8.3676882676875799e+00 1.4723123968996019e+00 0 0 0
104 52 5 -2.8942000000000001e+00 1.0221143810155875e-01 1.0533467487366437e+01 2.9216159935854633e+00 0 0 0
108 54 5 -2.8942000000000001e+00 3.8987373342566611e+00 1.0649493439920189e+01 9.1257128704850232e-01 0 0 0
110 55 5 -2.8942000000000001e+00 3.3891440128978871e+00 1.1577311376583788e+01 3.6034910394079227e+00 0 0 0
112 56 5 -2.8942000000000001e+00 3.3555671780027274e+00 9.4030632980863142e+00 3.6443627222784478e+00 0 0 0
114 57 5 -2.8942000000000001e+00 6.6456812445965685e+00 8.5700889789951589e+00 8.3872737502493577e-01 0 0 0
120 60 5 -2.8942000000000001e+00 5.2687028898023280e+00 1.0452971555474454e+01 3.9231538616368571e+00 0 0 0
580 290 5 -2.8942000000000001e+00 1.4321315948777384e+00 8.3260130612247885e+00 6.0819243338382947e+00 0 0 0
588 294 5 -2.8942000000000001e+00 3.8453757472582506e+00 1.0524006371528467e+01 5.5073774103374156e+00 0 0 0
594 297 5 -2.8942000000000001e+00 6.7450417601725849e+00 8.5423341382874298e+00 5.5727039790577058e+00 0 0 0
194 97 5 -2.8942000000000001e+00 1.3656366962551858e+00 1.2307943208205273e+01 1.1788685091286182e+00 0 0 0
196 98 5 -2.8942000000000001e+00 1.5996369845594640e+00 1.4366871072322409e+01 1.3862302031174196e+00 0 0 0
198 99 5 -2.8942000000000001e+00 1.0883814551270616e+00 1.3076474552017574e+01 3.1664807490227447e+00 0 0 0
202 101 5 -2.8942000000000001e+00 4.8489763416066198e+00 1.3352160418145115e+01 4.2368574242340518e-01 0 0 0
210 105 5 -2.8942000000000001e+00 6.6368585891676286e+00 1.4582646937802759e+01 8.0093557246636471e-01 0 0 0
212 106 5 -2.8942000000000001e+00 6.9191559489345469e+00 1.2502792913002514e+01 5.8156362518023674e-01 0 0 0
214 107 5 -2.8942000000000001e+00 6.1581493428640783e+00 1.3706544090002666e+01 3.5233969156701428e+00 0 0 0
674 337 5 -2.8942000000000001e+00 1.4258600129111152e+00 1.2205693883207012e+01 6.0185890595408589e+00 0 0 0
676 338 5 -2.8942000000000001e+00 1.4721665363573526e+00 1.4325938978616747e+01 5.9414412779040111e+00 0 0 0
682 341 5 -2.8942000000000001e+00 4.7935275390642520e+00 1.3504403003911747e+01 5.3342150804738102e+00 0 0 0
690 345 5 -2.8942000000000001e+00 6.6317503382142746e+00 1.4599354175735709e+01 5.4662963138045502e+00 0 0 0
692 346 5 -2.8942000000000001e+00 6.7462418047935220e+00 1.2507886598800562e+01 5.3082146008493671e+00 0 0 0
2424 1224 1 1.0000000000000000e+00 5.3265927012754837e+00 9.0155461596981397e+00 2.3606886774866571e+00 0 0 0
2428 1228 1 1.0000000000000000e+00 5.5455872850594412e+00 9.1345025453745663e+00 7.2988375053579144e+00 0 0 0
2443 1243 1 1.0000000000000000e+00 4.6380373882255572e+00 1.2275544531188887e+01 2.1222097988534854e+00 0 0 0
2447 1247 1 1.0000000000000000e+00 4.3895777666575579e+00 1.2161156745775850e+01 6.7014692146140904e+00 0 0 0
2720 1520 2 2.0000000000000000e+00 2.0750793325895445e+00 1.0452353952039525e+01 2.0869138412070458e+00 0 0 0
2724 1524 2 2.0000000000000000e+00 2.0253495411974076e+00 1.0266996881336826e+01 6.8933820055385970e+00 0 0 0
2726 1526 2 2.0000000000000000e+00 7.2726393972618677e+00 1.0500650901627846e+01 4.6243572570541716e+00 0 0 0
2741 1541 2 2.0000000000000000e+00 2.8011415539016582e+00 1.3580699698910536e+01 4.4024642151098234e+00 0 0 0
3021 1821 3 4.9707999999999997e+00 4.0022054791638153e+00 1.0477643347359535e+01 4.2264895692634239e+00 0 0 0
3040 1840 3 4.9707999999999997e+00 8.9218881131680039e-01 1.3287242586702417e+01 1.8781322562503067e+00 0 0 0
3042 1842 3 4.9707999999999997e+00 6.1551400738056996e+00 1.3489657453549903e+01 6.5796855621934991e-02 0 0 0
3044 1844 3 4.9707999999999997e+00 8.4172112730744475e-01 1.3274897797231565e+01 6.5428585982353544e+00 0 0 0
3046 1846 3 4.9707999999999997e+00 6.0319060675039440e+00 1.3561539737248321e+01 4.8503144205560744e+00 0 0 0
2445 1245 1 1.0000000000000000e+00 1.2550268896798256e-01 1.1837767522804878e+01 4.3512769835023324e+00 0 0 0
2722 1522 2 2.0000000000000000e+00 7.3525251871998210e+00 1.0431716111947814e+01 -3.4797005784036800e-02 0 0 0
584 292 5 -2.8942000000000001e+00 3.0434188684459906e-02 1.0478549116725590e+01 7.7759668461874760e+00 0 0 0
583 292 4 9.0149999999999997e-01 1.4797573295064992e-01 1.0499975489035169e+01 7.8132100261716664e+00 0 0 0
2547 1347 1 1.0000000000000000e+00 1.5154853509687728e+01 1.2142294999824763e+01 6.8408381407185272e+00 0 0 0
122 61 5 -2.8942000000000001e+00 1.0068881729954958e+01 7.3875927226080247e+00 1.2901796326396071e+00 0 0 0
2727 1527 2 2.0000000000000000e+00 8.1099540784409463e+00 7.4766214699250382e+00 6.9841633915884342e+00 0 0 0
617 309 4 9.0149999999999997e-01 1.5107737494535481e+01 7.4745236193925759e+00 5.2736150397747483e+00 0 0 0
618 309 5 -2.8942000000000001e+00 1.5228333545870250e+01 7.4731365205118800e+00 5.2479748678232170e+00 0 0 0
121 61 4 9.0149999999999997e-01 9.9675761266473479e+00 7.3827491894640360e+00 1.2234540569363663e+00 0 0 0
2821 1621 2 2.0000000000000000e+00 1.3258353673726864e+01 7.4625989853139449e+00 4.2399124339402929e+00 0 0 0
2723 1523 2 2.0000000000000000e+00 8.0657527726364098e+00 7.5786373414079620e+00 2.3155992448002873e+00 0 0 0
3124 1924 3 4.9707999999999997e+00 1.1433707927714222e+01 7.4563929069124404e+00 6.5393363045474961e+00 0 0 0
133 67 4 9.0149999999999997e-01 1.1301186345272432e+01 7.7057860774044000e+00 3.3031904617443026e+00 0 0 0
3120 1920 3 4.9707999999999997e+00 1.1284797739839101e+01 7.5410238834201824e+00 1.8470744072493823e+00 0 0 0
134 67 5 -2.8942000000000001e+00 1.1310369252338694e+01 7.6936408973022576e+00 3.1634208237703554e+00 0 0 0
123 62 4 9.0149999999999997e-01 9.0358521424861635e+00 1.0613215574315442e+01 1.1478049308903602e+00 0 0 0
125 63 4 9.0149999999999997e-01 8.5442087323248650e+00 9.4518305695858196e+00 3.2091273832294864e+00 0 0 0
127 64 4 9.0149999999999997e-01 8.6773019080903406e+00 1.1745802659220647e+01 3.1461568134374525e+00 0 0 0
603 302 4 9.0149999999999997e-01 9.0369220050052732e+00 1.0788075395638543e+01 5.8460738754704744e+00 0 0 0
217 109 4 9.0149999999999997e-01 9.9358467468009639e+00 1.3452992213057625e+01 1.3626113957301513e+00 0 0 0
697 349 4 9.0149999999999997e-01 9.8043445735416590e+00 1.3530785016626874e+01 6.1362546696128959e+00 0 0 0
131 66 4 9.0149999999999997e-01 1.1886652887451818e+01 8.6641327750818142e+00 1.0726087283397521e+00 0 0 0
135 68 4 9.0149999999999997e-01 1.0696157094840215e+01 1.0417013276303113e+01 2.9416319988845880e+00 0 0 0
139 70 4 9.0149999999999997e-01 1.4336395785448914e+01 1.0623694774177979e+01 9.2977410601261723e-01 0 0 0
141 71 4 9.0149999999999997e-01 1.4029162429018820e+01 1.1738122261670362e+01 3.3946827910943309e+00 0 0 0
143 72 4 9.0149999999999997e-01 1.3668010909453095e+01 9.4581435651063774e+00 3.6618416707989279e+00 0 0 0
611 306 4 9.0149999999999997e-01 1.1852629533448839e+01 8.7279081080619694e+00 5.7865980262998704e+00 0 0 0
619 310 4 9.0149999999999997e-01 1.4301161247872617e+01 1.0726360592361633e+01 5.5767667699417673e+00 0 0 0
225 113 4 9.0149999999999997e-01 1.2161387683414645e+01 1.2498485640041814e+01 1.3137196088785237e+00 0 0 0
227 114 4 9.0149999999999997e-01 1.1925117664664469e+01 1.4736414206618287e+01 1.0766423714592614e+00 0 0 0
229 115 4 9.0149999999999997e-01 1.1464315138870226e+01 1.3834582900794173e+01 3.2305526000713947e+00 0 0 0
233 117 4 9.0149999999999997e-01 1.5221620752890377e+01 1.3448378463150258e+01 6.3904674335552747e-01 0 0 0
705 353 4 9.0149999999999997e-01 1.1827941659809110e+01 1.2460922669373534e+01 5.8167955441617627e+00 0 0 0
707 354 4 9.0149999999999997e-01 1.1893761099738031e+01 1.4728634087040186e+01 5.7411836299629684e+00 0 0 0
713 357 4 9.0149999999999997e-01 1.5183970647245149e+01 1.3539979612445070e+01 5.2611102753779226e+00 0 0 0
124 62 5 -2.8942000000000001e+00 9.0537594132655776e+00 1.0604914826518369e+01 1.2775587743160488e+00 0 0 0
126 63 5 -2.8942000000000001e+00 8.5943450933018717e+00 9.5373871749773524e+00 3.1451410325984019e+00 0 0 0
128 64 5 -2.8942000000000001e+00 8.7236323702855998e+00 1.1652012714631136e+01 3.1052815323117815e+00 0 0 0
604 302 5 -2.8942000000000001e+00 9.0498604654490205e+00 1.0761206593013577e+01 5.9694348665381973e+00 0 0 0
218 109 5 -2.8942000000000001e+00 1.0051086529972990e+01 1.3457981086384640e+01 1.4017554830928272e+00 0 0 0
698 349 5 -2.8942000000000001e+00 9.9235760214620132e+00 1.3536661209600497e+01 6.1769058119003519e+00 0 0 0
132 66 5 -2.8942000000000001e+00 1.1843381143990236e+01 8.5803264894266498e+00 1.1349392712524713e+00 0 0 0
136 68 5 -2.8942000000000001e+00 1.0573594331024752e+01 1.0427546181226546e+01 2.9009279824695864e+00 0 0 0
140 70 5 -2.8942000000000001e+00 1.4342052522073789e+01 1.0616547820974688e+01 7.9550547012342454e-01 0 0 0
142 71 5 -2.8942000000000001e+00 1.4063314017088432e+01 1.1646501993630190e+01 3.4586505998368491e+00 0 0 0
144 72 5 -2.8942000000000001e+00 1.3740495978251957e+01 9.5445466777921126e+00 3.7007003641728042e+00 0 0 0
612 306 5 -2.8942000000000001e+00 1.1826806277942639e+01 8.6312691750000994e+00 5.8486195869385424e+00 0 0 0
620 310 5 -2.8942000000000001e+00 1.4315845117707431e+01 1.0713085172905723e+01 5.4526460337198666e+00 0 0 0
226 113 5 -2.8942000000000001e+00 1.2088025574692438e+01 1.2586840278670056e+01 1.3520353359785866e+00 0 0 0
228 114 5 -2.8942000000000001e+00 1.1871339616939187e+01 1.4649980010917572e+01 1.1306649722914581e+00 0 0 0
230 115 5 -2.8942000000000001e+00 1.1454754967613361e+01 1.3813514984263840e+01 3.1013684678920090e+00 0 0 0
234 117 5 -2.8942000000000001e+00 1.5334792731395657e+01 1.3458352157166269e+01 5.9987199111567080e-01 0 0 0
706 353 5 -2.8942000000000001e+00 1.1789061389495556e+01 1.2558384359841366e+01 5.8918455666970120e+00 0 0 0
708 354 5 -2.8942000000000001e+00 1.1838175524638904e+01 1.4655551076533397e+01 5.8001251703314605e+00 0 0 0
714 357 5 -2.8942000000000001e+00 1.5307614290886120e+01 1.3546243021565259e+01 5.2344178921227540e+00 0 0 0
2526 1326 1 1.0000000000000000e+00 1.0708411303687617e+01 9.2493376216843419e+00 4.4366967481069510e+00 0 0 0
2545 1345 1 1.0000000000000000e+00 9.6598567275219853e+00 1.2207356489517995e+01 4.7333021906982360e+00 0 0 0
2743 1543 2 2.0000000000000000e+00 8.0725432020173482e+00 1.3576639794674463e+01 2.2723682685651121e+00 0 0 0
2747 1547 2 2.0000000000000000e+00 7.8833607003525490e+00 1.3403752821672406e+01 7.0342272618175636e+00 0 0 0
2820 1620 2 2.0000000000000000e+00 1.2533939698637651e+01 1.0487548265199143e+01 2.0574891741251067e+00 0 0 0
2824 1624 2 2.0000000000000000e+00 1.2477476226998345e+01 1.0464826546593338e+01 6.7017818577687995e+00 0 0 0
2841 1641 2 2.0000000000000000e+00 1.3274053964601826e+01 1.3551771634254502e+01 4.4223063783036380e+00 0 0 0
3023 1823 3 4.9707999999999997e+00 9.2642621069855462e+00 1.0555961174028711e+01 2.5290095862136424e+00 0 0 0
3027 1827 3 4.9707999999999997e+00 9.2585582979594729e+00 1.0521769073348052e+01 7.2833976819685429e+00 0 0 0
3121 1921 3 4.9707999999999997e+00 1.4521139820271090e+01 1.0545927593426656e+01 4.1847073857175268e+00 0 0 0
3140 1940 3 4.9707999999999997e+00 1.1319480209919931e+01 1.3618075551102383e+01 1.7908373594524047e+00 0 0 0
3144 1944 3 4.9707999999999997e+00 1.1212597712857370e+01 1.3619350677517472e+01 6.4861645962224248e+00 0 0 0
2543 1343 1 1.0000000000000000e+00 1.4979881577972572e+01 1.2274208753928756e+01 1.8640967643528317e+00 0 0 0
2541 1341 1 1.0000000000000000e+00 9.7812231366314570e+00 1.2285994912860700e+01 -1.2679910517407439e-02 0 0 0
616 308 5 -2.8942000000000001e+00 1.0573579851121586e+01 1.0436366596721411e+01 7.5879136624848629e+00 0 0 0
615 308 4 9.0149999999999997e-01 1.0696727120239755e+01 1.0437746190941342e+01 7.6092899600546309e+00 0 0 0
606 303 5 -2.8942000000000001e+00 8.5985452304759900e+00 9.4911148475719749e+00 7.7150265552762178e+00 0 0 0
488 244 5 -2.8942000000000001e+00 -2.6081867168537942e-02 4.4077235646218540e+00 7.7427166446897919e+00 0 0 0
487 244 4 9.0149999999999997e-01 9.0316621518157558e-02 4.4083764250358612e+00 7.7809225732774534e+00 0 0 0
2411 1211 1 1.0000000000000000e+00 4.4609987578334884e+00 -5.4225705841639771e-02 1.1550398035729671e+01 0 0 0
2433 1233 1 1.0000000000000000e+00 4.3570956986925857e-01 5.6480247861479942e+00 1.3865931629425884e+01 0 0 0
486 243 5 -2.8942000000000001e+00 8.9633196704484597e-01 9.5839946781803209e-01 8.0017102112450829e+00 0 0 0
485 243 4 9.0149999999999997e-01 8.9839367376266588e-01 9.3113151457078525e-01 8.1217755819175927e+00 0 0 0