ITEM: TIMESTEP
10000
ITEM: NUMBER OF ATOMS
1179
ITEM: BOX BOUNDS pp pp ff
0.0000000000000000e+00 2.8623000000000001e+01
0.0000000000000000e+00 2.8623000000000001e+01
0.0000000000000000e+00 3.5000000000000000e+01
ITEM: ATOMS id type x y z vx vy vz 
1 1 11.0387 10.8489 24.8767 -0.44249 1.93856 -0.583516 
2 1 13.8734 10.4517 24.8298 -1.90142 -1.47452 -0.823626 
3 1 12.2212 8.23498 24.3734 0.0652915 -0.361423 -0.286609 
4 1 24.4857 24.5545 20.6668 1.02862 -2.09451 -0.94004 
5 1 26.573 24.6544 22.817 1.23866 -0.204142 0.977972 
6 1 26.5702 26.5165 20.6887 0.9178 -2.46758 -0.0758035 
7 1 24.3962 26.6157 22.5504 -0.0604293 -1.75489 -1.64388 
8 1 20.6673 24.3537 20.5835 -2.15484 -0.424465 1.26165 
9 1 22.6232 24.3575 22.7278 -1.0069 2.14196 1.35255 
10 1 22.4934 26.6353 20.628 -1.24049 2.25565 2.05803 
11 1 20.4343 26.4703 22.8167 -1.98106 2.28836 0.114362 
12 1 16.3911 24.5511 20.5945 2.13325 -0.712558 -2.07747 
13 1 18.4015 24.6381 22.4758 0.281179 -0.915855 -2.13017 
14 1 18.4313 26.6594 20.523 0.466254 0.609621 0.262033 
15 1 16.4439 26.4642 22.5748 1.04609 -0.279717 -1.18594 
16 1 12.2223 24.6423 20.6791 1.35785 -2.47299 -0.761146 
17 1 14.2456 24.3899 22.565 -0.31765 -0.867891 -2.45342 
18 1 14.3044 26.6733 20.761 0.596628 0.614368 0.453971 
19 1 12.1711 26.6004 22.583 1.20174 0.0232686 -2.2128 
20 1 8.21206 24.6972 20.5761 1.73911 1.60142 -0.455741 
21 1 10.0751 24.6822 22.7185 2.18306 -1.71242 1.18373 
22 1 10.1383 26.6015 20.6747 -0.139168 1.26347 1.73928 
23 1 8.00825 26.7448 22.6694 -0.760309 -2.298 0.999367 
24 1 3.97357 24.5918 20.7091 -0.278704 1.12028 -1.42907 
25 1 5.97178 24.6338 22.7818 0.291992 0.430206 -1.62586 
26 1 5.93871 26.6251 20.6691 -1.70011 2.33731 0.430844 
27 1 3.91333 26.7916 22.6808 -0.197531 1.87968 2.00077 
28 1 28.5082 24.5604 20.643 1.23002 -2.09561 1.67971 
29 1 2.12266 24.5559 22.8387 0.917006 0.114461 2.47545 
30 1 2.0007 26.5164 20.767 -0.435787 -2.11972 -0.262074 
31 1 28.6063 26.5559 22.5744 -0.442542 1.06176 1.79371 
32 1 24.4846 20.4706 20.6905 1.48359 -0.711509 -0.361967 
33 1 26.6712 20.6122 22.7072 2.49427 -2.45241 0.204888 
34 1 26.3395 22.5506 20.8558 0.907097 -1.96288 -1.09851 
35 1 24.6035 22.347 22.8017 1.25928 1.57719 0.847001 
36 1 20.5445 20.5751 20.5198 1.47018 2.04592 -0.0248396 
37 1 22.5422 20.2849 22.6653 2.30106 2.46363 1.32357 
38 1 22.5367 22.3269 20.7831 -0.212155 0.145379 2.15939 
39 1 20.4057 22.5874 22.7218 -1.52166 -1.36 -1.97968 
40 1 16.3177 20.4405 20.6182 -0.872466 1.44492 0.771873 
41 1 18.4544 20.5265 22.5893 1.51744 0.512835 2.37554 
42 1 18.419 22.6335 20.5987 2.35919 -2.09556 -2.63494 
43 1 16.377 22.4875 22.5575 0.313442 0.166474 1.24509 
44 1 12.2965 20.4148 20.7789 1.81687 -1.99736 -2.24805 
45 1 14.2808 20.3945 22.6735 -1.77561 1.32774 -0.45278 
46 1 14.2408 22.5461 20.6311 -1.11572 -1.59813 1.36792 
47 1 12.1623 22.3029 22.7857 2.46389 1.55324 1.45547 
48 1 8.11804 20.4422 20.6417 -1.01482 1.76063 1.27664 
49 1 10.1005 20.438 22.7146 1.55806 -1.24636 -2.03265 
50 1 10.2673 22.5188 20.7056 0.14183 2.07814 0.402298 
51 1 8.05796 22.6298 22.6407 -2.46638 0.119591 -1.49792 
52 1 4.13173 20.3474 20.62 -0.251137 -2.4482 2.085 
53 1 5.96853 20.3525 22.6178 0.238826 -1.80679 1.44605 
54 1 6.04259 22.4955 20.6439 -0.22513 -0.394299 -1.06307 
55 1 4.06694 22.2853 22.6615 -2.60269 1.17672 -2.52305 
56 1 28.4552 20.6613 20.6757 -2.47453 1.07439 1.84898 
57 1 1.99906 20.4173 22.9021 2.0658 1.16258 -1.39057 
58 1 1.99219 22.5365 20.9027 0.221379 2.06778 1.34876 
59 1 0.00306313 22.7137 22.8714 -1.32267 0.610877 0.147318 
60 1 24.5152 16.3211 20.6002 -1.05571 -1.05734 2.11176 
61 1 26.8779 16.1579 22.7628 -0.92462 0.302786 0.245632 
62 1 26.7341 18.335 20.7713 1.2821 -2.23683 -0.120081 
63 1 24.4407 18.237 22.5759 -1.46695 0.213341 -1.59189 
64 1 20.3628 16.3095 20.6031 1.41897 0.834707 0.436126 
65 1 22.5366 16.2608 22.6426 -1.62243 -2.54221 -2.16545 
66 1 22.5246 18.4824 20.5182 1.72996 1.71175 2.10092 
67 1 20.4689 18.4337 22.403 2.49695 0.114107 1.82126 
68 1 16.3864 16.3891 20.6612 -2.32273 0.4233 -0.984339 
69 1 18.4568 16.2992 22.6515 -0.527703 2.2603 0.62821 
70 1 18.3064 18.5568 20.6848 0.979128 -1.00086 1.7498 
71 1 16.3356 18.4065 22.723 0.97595 -1.35444 1.29678 
72 1 12.2886 16.2901 20.7319 0.55757 2.06107 -0.0870036 
73 1 14.3767 16.3429 22.6506 -2.60737 2.07978 1.47559 
74 1 14.3098 18.4003 20.6899 -2.417 2.43353 -0.628925 
75 1 12.0069 18.1767 22.9511 -1.09233 -1.19301 -2.07972 
76 1 8.18167 16.349 20.669 -0.390364 2.60268 -1.45272 
77 1 10.1583 16.2337 22.6276 0.835638 1.37956 0.523687 
78 1 10.2123 18.3856 20.6862 0.399586 -0.429383 -1.81045 
79 1 8.22382 18.4196 22.5825 -0.396424 1.56329 0.52725 
80 1 4.01017 16.304 20.7309 1.91231 -0.0469398 0.926482 
81 1 6.15838 16.3744 22.7635 0.328444 -2.3668 1.23446 
82 1 5.97502 18.4086 20.4908 -1.66506 2.46991 0.62007 
83 1 3.96193 18.4497 22.6646 2.10898 0.0292082 2.11451 
84 1 28.6145 16.2461 20.5984 -2.47515 1.2537 1.97929 
85 1 1.82655 16.1767 22.7629 0.931036 2.46062 -1.64269 
86 1 1.943 18.3457 20.7703 1.9273 2.46653 2.27675 
87 1 28.5247 18.5163 22.6801 2.51086 0.468363 -2.29282 
88 1 24.5411 12.2761 20.5913 -0.71786 0.205517 -0.446474 
89 1 26.6858 12.2499 22.6136 -1.24109 -2.45699 -2.49978 
90 1 26.6494 14.3841 20.6378 1.2825 -0.895103 1.78117 
91 1 24.5206 14.368 22.4472 -2.34974 2.68051 1.46392 
92 1 20.4326 12.1574 20.5836 -2.29329 1.81321 -0.958884 
93 1 22.6757 12.2705 22.5875 -2.44784 -1.23206 -0.501765 
94 1 22.4629 14.2771 20.5611 -2.04047 1.2788 -0.494089 
95 1 20.7022 14.2371 22.5627 -0.371703 -2.08689 -0.193251 
96 1 16.3744 12.4206 20.5865 -0.349937 -2.34689 1.70256 
97 1 18.3509 12.1646 22.7986 -2.33313 0.649707 0.176436 
98 1 18.456 14.3187 20.6802 0.21882 1.50778 1.32689 
99 1 16.4565 14.3004 22.6831 2.52252 0.0833521 -0.437908 
100 1 12.1488 12.5079 20.6278 -0.516786 0.0474606 1.16182 
101 1 14.3572 12.3516 22.8637 -2.34239 -1.08156 -1.68345 
102 1 14.3282 14.3714 20.6714 1.31981 0.193425 -2.06643 
103 1 12.2175 14.4474 22.8333 0.0266057 2.02448 0.398175 
104 1 8.13869 12.3414 20.6879 2.50178 1.61012 2.37893 
105 1 10.271 12.2385 22.7273 0.84921 1.33849 -0.136946 
106 1 10.0246 14.4117 20.5868 1.59537 -0.176101 0.0798296 
107 1 8.11891 14.1428 22.741 0.0439931 2.45107 2.42657 
108 1 4.03224 12.2631 20.6212 0.513975 1.51011 -1.8765 
109 1 5.9584 12.2988 22.8703 -1.67823 -1.28294 -1.48112 
110 1 5.9301 14.352 20.743 0.992686 -1.27081 0.896636 
111 1 3.8569 14.212 22.7377 -2.58485 -1.52309 -0.0652927 
112 1 28.6103 12.0419 20.5134 1.51244 1.30454 2.33057 
113 1 1.86085 12.0644 22.6978 -0.195225 -1.81322 -0.602929 
114 1 2.11565 14.2208 20.7244 0.759599 2.0266 -1.01789 
115 1 28.5829 14.181 22.6762 -2.04516 1.92384 1.51065 
116 1 24.344 8.04319 20.5893 -2.0728 -1.00321 -0.631787 
117 1 26.6397 8.19068 22.7504 -1.45157 -1.17561 -1.45551 
118 1 26.4895 9.99534 20.6236 1.57614 0.22083 2.24591 
119 1 24.4107 10.0809 22.6402 -1.08916 -1.00586 2.59939 
120 1 20.4455 8.00436 20.6051 -2.44505 -2.24387 -1.82552 
121 1 22.4199 8.20713 22.7182 0.878709 -1.58277 -0.45416 
122 1 22.5056 10.2257 20.5266 2.22534 -2.10488 -0.110886 
123 1 20.5049 10.2727 22.6597 -0.770442 2.48875 -1.01968 
124 1 16.4007 8.28759 20.5335 -0.244603 1.25929 0.47599 
125 1 18.2904 8.20801 22.7917 -0.124705 0.289183 -0.230958 
126 1 18.3234 10.2333 20.8716 2.57088 1.17496 -0.326647 
127 1 16.2341 10.1927 22.9873 1.89975 1.02409 0.14533 
128 1 12.2407 8.04508 20.6991 -2.63665 -1.94925 -0.146479 
129 1 14.1337 8.2481 22.4698 0.54177 1.77815 -1.3657 
130 1 14.4752 10.35 20.5924 -0.9157 1.67384 1.74412 
131 1 12.2126 10.4548 22.4824 1.05651 -0.355852 -2.15967 
132 1 8.32466 8.12904 20.6795 -1.85223 -2.49068 -1.0108 
133 1 10.0818 8.40738 22.8927 0.331706 -0.602024 -1.26628 
134 1 10.1653 10.358 20.6847 -1.23352 2.68011 0.026649 
135 1 8.17647 10.3288 22.8577 -2.43549 -0.74116 0.00156061 
136 1 4.03945 8.01055 20.6138 0.346149 -1.89732 2.50067 
137 1 6.23294 8.13194 22.4803 -1.00471 1.78042 -0.363006 
138 1 6.33229 10.1981 20.6775 0.944823 0.74408 -0.0322772 
139 1 3.93284 10.2316 22.5363 -0.67523 0.441003 -0.553848 
140 1 28.4808 8.03299 20.6134 -1.98845 0.196805 1.67642 
141 1 1.87909 8.06829 22.5911 -1.42814 -0.057005 1.53676 
142 1 2.00421 10.0751 20.533 1.72614 1.19184 2.19974 
143 1 28.531 10.2323 22.6503 -2.55095 0.563606 1.48794 
144 1 24.4859 4.02182 20.7016 -1.74584 -2.33928 2.19648 
145 1 26.3923 4.10634 22.8671 1.03824 0.435982 -0.0502695 
146 1 26.3561 6.15378 20.7237 -0.657765 2.17686 -1.08272 
147 1 24.4864 6.25595 22.7908 1.28372 -1.50913 1.04871 
148 1 20.3633 4.05238 20.6372 1.36111 -0.74832 1.69611 
149 1 22.2692 4.17295 22.6284 0.56623 -0.954943 -1.20662 
150 1 22.3831 6.14671 20.6393 -1.37241 -2.51748 -0.509359 
151 1 20.2736 6.16484 22.7258 -2.34533 2.63756 1.1576 
152 1 16.3601 4.07826 20.6629 1.09676 2.44643 -1.28054 
153 1 18.3063 4.00081 22.6784 -2.21585 -1.79221 2.42779 
154 1 18.3038 6.14771 20.716 -0.335323 -0.777436 0.456212 
155 1 16.3059 6.15725 22.7693 1.72833 0.757542 -1.92561 
156 1 12.3262 4.07774 20.6935 0.586574 1.41283 2.53744 
157 1 14.3334 4.09248 22.7851 1.59468 -1.12094 -0.439995 
158 1 14.4188 6.15984 20.6789 1.54666 -1.74222 -1.04822 
159 1 12.2915 6.07801 22.6376 -2.45985 -1.48081 -0.441724 
160 1 8.38558 4.06349 20.6958 -0.98342 -1.11122 -1.54302 
161 1 10.1284 3.98666 22.8394 0.484614 1.45205 -1.5064 
162 1 10.239 6.19093 20.6031 0.457891 -2.01918 2.35011 
163 1 8.25338 6.1503 22.6569 -0.678323 1.52196 0.942941 
164 1 4.1324 4.12956 20.7331 1.05594 0.666458 0.518214 
165 1 6.34455 4.20606 22.7261 -1.39932 1.53958 0.0128075 
166 1 6.22045 6.06406 20.5548 -1.62636 0.326209 1.31429 
167 1 4.34076 6.1143 22.5407 -2.30425 -2.05076 2.1449 
168 1 28.509 4.10832 20.6997 -1.08331 1.89294 2.12804 
169 1 1.8854 4.09478 22.8044 2.03578 0.506895 -1.97012 
170 1 2.01617 6.12739 20.6233 0.526731 -1.62873 1.70328 
171 1 28.5164 6.11877 22.6531 -0.997728 2.46639 -0.139599 
172 1 24.529 0.0517414 20.4984 -0.558411 0.783965 1.80768 
173 1 26.4623 0.173138 22.5944 -2.43604 0.778885 1.3184 
174 1 26.5912 2.02631 20.5929 -2.16674 1.27945 -0.291056 
175 1 24.3003 1.98998 22.6096 0.558848 2.30445 -0.162704 
176 1 20.4982 0.0880106 20.6805 -1.57953 2.18748 2.29502 
177 1 22.2658 28.5874 22.8621 1.97178 1.9164 -1.52639 
178 1 22.485 2.15502 20.608 -1.12319 0.0343039 -2.43536 
179 1 20.291 2.09661 22.8237 1.57908 1.85744 -0.440288 
180 1 16.3613 0.111771 20.758 1.92901 -0.563608 2.42676 
181 1 18.5338 28.5427 22.7674 -1.67936 0.919919 0.110438 
182 1 18.4415 2.07007 20.764 -0.160647 1.03669 -0.367094 
183 1 16.3442 1.9241 22.9001 1.21037 1.85624 0.604375 
184 1 12.2573 0.0923851 20.5665 -1.69754 -2.24352 -1.25106 
185 1 14.3214 0.0244554 22.7578 -0.16593 2.44128 2.34653 
186 1 14.362 2.07342 20.7024 -2.53395 -0.128794 -0.673202 
187 1 12.4541 2.02519 22.691 -2.49566 1.45649 -1.0642 
188 1 8.12952 0.0662409 20.7039 -0.445209 -1.32123 2.28375 
189 1 10.2874 0.0300575 22.7532 -1.78306 -1.85841 -1.37176 
190 1 10.2865 2.0806 20.702 -2.08747 1.83684 -1.79377 
191 1 8.10802 2.01941 22.7105 -1.30706 -2.40396 -2.45304 
192 1 3.99168 0.0982613 20.6428 1.63133 -0.616794 -0.141008 
193 1 5.9927 0.192731 22.8518 2.29438 1.58848 -0.535842 
194 1 6.0205 2.09169 20.7508 -1.7809 -2.58279 0.216999 
195 1 4.17978 2.23916 22.7674 -2.44512 1.99729 -0.276968 
196 1 28.5299 28.5635 20.6372 -1.40916 0.651745 2.60927 
197 1 1.91903 0.0881633 22.7831 -0.856229 -1.54593 -1.91098 
198 1 1.90158 2.11664 20.7196 2.38756 2.57893 2.64775 
199 1 28.3566 1.9952 22.6481 -1.30499 0.544546 -0.515661 
200 1 24.2086 24.6865 16.4232 -2.1519 1.32346 2.03895 
201 1 26.5013 24.4673 18.5743 0.832755 0.67955 -2.27417 
202 1 26.4816 26.6466 16.5187 -0.317868 0.785685 -1.1189 
203 1 24.4671 26.5675 18.5397 -1.99293 -0.866417 1.09843 
204 1 20.658 24.5386 16.527 -1.24112 2.28344 2.28708 
205 1 22.5181 24.6217 18.5599 1.10832 0.327048 -0.496674 
206 1 22.4721 26.773 16.2921 -1.37123 1.45927 -2.09042 
207 1 20.6017 26.6034 18.636 0.121852 0.563119 -1.38212 
208 1 16.3868 24.455 16.5181 -1.05465 0.850911 2.19422 
209 1 18.455 24.4662 18.4454 0.297191 -2.38164 1.24629 
210 1 18.4149 26.5127 16.4341 0.877131 -1.57539 1.63179 
211 1 16.3836 26.5203 18.5499 1.94934 1.42087 -0.330154 
212 1 12.0331 24.5996 16.5368 1.32631 -1.9246 0.31579 
213 1 14.4085 24.5063 18.6239 2.60525 0.536027 -0.451775 
214 1 14.329 26.4278 16.5958 -0.145096 2.43804 0.871908 
215 1 12.337 26.6177 18.7351 0.953954 0.341561 -0.633399 
216 1 8.12196 24.4647 16.5529 -2.02185 1.15594 -1.632 
217 1 10.1568 24.5793 18.584 1.17242 0.75597 -1.8128 
218 1 10.1089 26.5653 16.5738 2.53694 -1.6119 -1.8278 
219 1 7.90087 26.6969 18.6379 -0.237379 0.64355 -2.48559 
220 1 4.07326 24.6277 16.546 0.958966 -0.305894 -0.788567 
221 1 6.07681 24.5541 18.6114 0.388725 -2.57202 0.757515 
222 1 6.1508 26.6705 16.6661 -1.05526 1.19312 2.44519 
223 1 4.05165 26.7404 18.6447 0.434045 0.425642 1.23755 
224 1 28.5284 24.6747 16.6525 2.46043 1.77339 -1.7574 
225 1 1.9533 24.564 18.552 -0.16038 0.218473 -0.230801 
226 1 2.02592 26.467 16.5297 -0.0843943 -1.31404 1.08088 
227 1 28.5642 26.6109 18.6119 0.856262 -2.15023 1.67877 
228 1 24.5696 20.257 16.4611 0.916322 -0.78512 -1.35402 
229 1 26.6216 20.4496 18.5714 -1.00332 -1.38608 0.0634188 
230 1 26.3953 22.5321 16.5144 0.114531 -0.450876 -2.27578 
231 1 24.3922 22.4261 18.5028 -0.829396 -1.51995 -0.332272 
232 1 20.4215 20.2959 16.3522 -2.45003 -1.04412 1.4287 
233 1 22.4728 20.4529 18.4855 0.0936952 -0.478899 -1.05558 
234 1 22.5978 22.3387 16.4431 1.1431 1.3864 -1.2938 
235 1 20.5632 22.4933 18.5324 -2.26738 2.30925 1.01428 
236 1 16.2454 20.4735 16.6595 1.07474 -1.62101 -1.08176 
237 1 18.5112 20.4505 18.4702 1.48916 2.64185 -1.01178 
238 1 18.5766 22.5474 16.5653 -0.1734 -1.08274 -0.286045 
239 1 16.3762 22.4664 18.5594 -0.112857 -2.191 0.796768 
240 1 12.1114 20.5158 16.5212 0.784962 -1.45043 0.745576 
241 1 14.307 20.3667 18.7013 -0.10619 -1.55572 -2.08591 
242 1 14.2189 22.5606 16.4818 1.65366 -2.02131 -1.53698 
243 1 12.3158 22.556 18.5117 1.20341 1.57698 2.57021 
244 1 8.24995 20.3387 16.5271 0.623439 0.252854 -0.676524 
245 1 10.206 20.3707 18.6475 0.0309673 1.05299 -2.28511 
246 1 10.1979 22.4731 16.5641 1.40222 0.469966 -1.87393 
247 1 8.09862 22.4866 18.6707 -0.857042 0.716225 -1.3075 
248 1 4.13006 20.3958 16.4837 1.03916 -0.123602 1.70151 
249 1 6.0816 20.5161 18.4929 1.14174 -0.259749 0.155514 
250 1 6.00728 22.5156 16.5616 -1.25046 -0.861886 -2.32836 
251 1 3.93644 22.5291 18.7113 1.47053 2.56611 -0.644449 
252 1 28.5438 20.61 16.5253 -2.03722 -2.45905 0.136065 
253 1 2.01067 20.3837 18.5891 0.810755 2.30313 -1.03113 
254 1 1.89844 22.5909 16.5388 -1.70716 0.486288 1.86669 
255 1 28.5266 22.5677 18.7984 2.50406 -2.43328 -1.87198 
256 1 24.6203 16.3405 16.5919 0.036449 -2.31594 2.00275 
257 1 26.6555 16.3746 18.5851 -2.6109 1.0836 -2.4611 
258 1 26.6988 18.3668 16.4227 -1.27979 -0.373008 1.30859 
259 1 24.6311 18.3253 18.6838 -2.58329 -1.67422 1.1179 
260 1 20.3778 16.3607 16.52 2.28915 -1.40817 0.214472 
261 1 22.5025 16.2195 18.6353 -2.48671 -2.00751 2.14871 
262 1 22.4801 18.2791 16.5054 -0.626765 -2.06121 1.5854 
263 1 20.3872 18.39 18.6269 2.11629 0.825333 2.05968 
264 1 16.3665 16.348 16.2753 -0.902495 0.774204 2.22603 
265 1 18.1896 16.5226 18.6888 -0.9845 1.95553 -1.84192 
266 1 18.3021 18.4206 16.5192 1.28758 -0.400012 -1.59032 
267 1 16.2462 18.2718 18.5126 1.31318 0.104007 1.85487 
268 1 12.3115 16.3776 16.5779 0.15304 -0.51032 1.39734 
269 1 14.301 16.299 18.6443 -1.79237 0.85707 -0.39072 
270 1 14.3682 18.4512 16.5197 2.04152 1.57283 1.75251 
271 1 12.1436 18.4176 18.6522 -1.22392 -0.339493 2.20263 
272 1 8.09839 16.4208 16.5714 -1.76059 -0.743808 -2.05398 
273 1 10.2684 16.3388 18.6284 2.46498 -1.43117 0.902479 
274 1 10.243 18.3186 16.5268 0.120614 0.976965 -1.41194 
275 1 8.09952 18.3032 18.6327 1.74301 -1.83374 -0.536079 
276 1 3.93029 16.4914 16.463 -0.45199 1.4365 2.51906 
277 1 5.9207 16.2654 18.6669 0.396073 -1.10941 2.36351 
278 1 6.15523 18.3992 16.6182 1.69006 -0.383201 -0.242401 
279 1 4.10278 18.3901 18.5581 1.24502 0.520792 -1.83955 
280 1 0.0151782 16.2715 16.5198 -1.43365 -2.38944 -2.48442 
281 1 2.02824 16.369 18.6181 -0.55063 -1.07557 -1.82928 
282 1 2.13402 18.4913 16.477 1.38446 -0.874321 0.902036 
283 1 28.5078 18.3928 18.5758 -2.01042 2.2494 -2.12913 
284 1 24.5225 12.1552 16.5855 2.03281 -1.55989 2.14069 
285 1 26.6038 12.34 18.4879 2.43665 -0.0303005 -0.610156 
286 1 26.5063 14.3605 16.4273 1.32879 2.58022 -2.27965 
287 1 24.6593 14.3159 18.5855 -2.22893 1.25018 1.28809 
288 1 20.5346 12.3903 16.694 -2.23607 -2.12635 -0.283228 
289 1 22.5001 12.1933 18.5634 -0.510336 2.32967 -0.630647 
290 1 22.5672 14.3454 16.4605 1.78953 0.134874 0.696022 
291 1 20.3503 14.3843 18.6322 0.0089735 -2.51596 -1.49664 
292 1 16.3962 12.3372 16.567 0.0239659 0.101646 -0.694054 
293 1 18.3439 12.2864 18.6515 2.51489 -0.806068 2.04041 
294 1 18.3923 14.3042 16.4672 -1.04952 2.17086 -1.18702 
295 1 16.3661 14.3856 18.4363 -0.816315 0.797662 -1.43375 
296 1 12.2163 12.2013 16.3612 1.32984 -1.02703 2.11835 
297 1 14.26 12.2172 18.6956 -1.51705 1.7824 1.20685 
298 1 14.462 14.3405 16.4987 1.19694 -0.958894 1.36851 
299 1 12.2827 14.3451 18.5695 1.83464 -0.399366 -1.33198 
300 1 8.23049 12.247 16.6265 -1.95648 1.66373 1.47145 
301 1 10.316 12.3993 18.5751 2.3506 2.18641 0.204114 
302 1 10.2622 14.3898 16.3785 -1.47826 1.18369 -2.03551 
303 1 8.25368 14.2733 18.5145 -0.230195 -0.62958 2.47788 
304 1 4.08836 12.1645 16.588 -1.90181 2.55351 -0.130695 
305 1 6.1436 12.2273 18.6133 0.531246 -0.00735866 -2.32951 
306 1 6.16201 14.2674 16.5934 -1.99786 1.0548 1.53579 
307 1 4.0558 14.0854 18.6383 1.38252 -1.67393 0.787699 
308 1 0.0370998 12.2369 16.3305 2.23245 0.636109 -0.223461 
309 1 1.919 12.1484 18.5226 1.24389 -2.49209 1.79303 
310 1 1.90932 14.2305 16.4707 0.695582 -2.19574 0.72317 
311 1 0.146275 14.2199 18.5342 0.00695916 0.767596 2.58353 
312 1 24.6958 8.17015 16.5386 1.56381 -0.145919 -1.98196 
313 1 26.4413 8.0502 18.7924 -2.09681 -1.2046 -0.533101 
314 1 26.6456 10.2938 16.435 1.83798 -2.59148 2.61785 
315 1 24.6876 10.207 18.6375 0.0946236 -0.79138 -0.463711 
316 1 20.4691 8.16831 16.5866 0.858988 1.21491 2.58568 
317 1 22.4426 8.1678 18.5071 0.642528 -2.54792 2.53915 
318 1 22.4159 10.0764 16.4169 -1.50621 -1.71578 -2.25052 
319 1 20.4949 10.2265 18.4812 -0.865832 1.53447 -1.0558 
320 1 16.3392 8.21383 16.4783 -2.49892 -0.263276 -0.754841 
321 1 18.4612 8.27288 18.7264 -0.47263 -0.593721 0.328853 
322 1 18.4148 10.275 16.3801 -0.677848 -1.10733 0.154147 
323 1 16.4297 10.2146 18.4716 2.29243 0.781105 1.48494 
324 1 12.3761 8.28938 16.6457 0.87989 2.34258 -1.2064 
325 1 14.2881 8.29027 18.6617 2.36133 2.14028 -0.34716 
326 1 14.3511 10.3527 16.4667 2.00447 -0.38665 0.149736 
327 1 12.2897 10.2926 18.7125 2.43317 -0.124937 0.485204 
328 1 8.02672 8.20954 16.5223 0.888958 0.896672 2.00428 
329 1 10.3206 8.04056 18.4678 1.8077 -2.24081 1.88989 
330 1 10.2735 10.1516 16.6292 -0.174316 -0.554958 -0.753599 
331 1 8.23835 10.2027 18.6818 -0.817713 -1.484 -0.970449 
332 1 3.97511 8.12483 16.4845 -0.515346 -2.28961 -1.23791 
333 1 5.95906 8.19485 18.6375 -2.02504 0.569289 1.51422 
334 1 5.97509 10.2457 16.7952 -0.374299 2.03234 -0.132664 
335 1 3.98688 10.1659 18.7588 -0.723037 -1.9191 2.55916 
336 1 0.00510353 8.13815 16.46 0.532748 -1.29058 -2.45284 
337 1 2.07389 8.01554 18.6083 -0.284753 0.26695 -2.52191 
338 1 2.01318 10.0796 16.4382 0.665415 0.124447 0.527711 
339 1 28.5655 10.0051 18.561 -0.942985 -0.624473 -1.86799 
340 1 24.5387 4.06797 16.4647 -1.85244 -0.615249 -0.70343 
341 1 26.5423 4.1542 18.5747 -1.2008 0.928896 2.43071 
342 1 26.571 6.15391 16.4205 1.09292 1.54148 0.145141 
343 1 24.4439 6.05062 18.6027 -0.515941 -1.67522 0.234392 
344 1 20.3519 4.14656 16.5095 -1.92593 0.467102 -2.26547 
345 1 22.45 4.02588 18.596 -2.62442 2.07821 1.56199 
346 1 22.5017 6.17401 16.4318 1.34768 1.71678 1.89514 
347 1 20.391 6.12261 18.6656 -2.07532 -0.797571 1.60265 
348 1 16.3517 4.21569 16.441 0.306086 -1.43902 1.64708 
349 1 18.3894 4.16505 18.6122 -1.1296 -1.56228 -0.89779 
350 1 18.3346 6.16186 16.545 0.392146 1.86647 -2.54056 
351 1 16.2857 6.26806 18.4355 0.343486 1.08841 -1.25098 
352 1 12.2855 4.22161 16.5831 1.20022 0.981031 -2.05331 
353 1 14.3041 4.1543 18.589 -2.27933 -2.38429 -0.79953 
354 1 14.3268 6.17938 16.4477 1.82791 -2.10855 1.75329 
355 1 12.333 6.12146 18.6019 1.31076 1.8719 -1.33431 
356 1 8.15999 3.87468 16.5107 1.35172 0.566258 -1.68344 
357 1 10.2634 4.0705 18.632 1.44633 -0.890809 -0.318707 
358 1 10.1101 6.13642 16.4979 -2.58927 -1.46776 1.2929 
359 1 8.17119 6.03343 18.6259 -0.97363 -1.03844 1.4035 
360 1 4.05004 4.15794 16.4653 0.898306 -1.1507 -1.93188 
361 1 6.21092 4.05238 18.6034 1.33757 1.63425 -0.463445 
362 1 6.10401 6.01139 16.4282 0.0253659 2.40955 -0.45765 
363 1 4.19938 6.14344 18.5273 1.93314 -0.249744 -1.45331 
364 1 28.4686 4.20607 16.4898 1.48628 1.96314 -1.2689 
365 1 2.02765 4.03404 18.6449 2.42791 1.65776 2.04805 
366 1 1.89658 6.17027 16.4702 0.0205704 1.39516 -2.57087 
367 1 28.4267 6.0451 18.6151 0.173167 -1.78631 0.708518 
368 1 24.5144 0.107941 16.3324 -2.18812 2.65139 0.0851281 
369 1 26.3984 28.5971 18.6069 -1.09884 0.873982 2.64777 
370 1 26.5584 2.03902 16.523 -1.0534 0.478006 0.612543 
371 1 24.5284 2.06112 18.5064 -2.35802 1.51813 0.307806 
372 1 20.391 28.5678 16.398 1.06264 1.95988 2.27226 
373 1 22.4526 0.0317151 18.6647 1.29637 -1.12914 -0.355978 
374 1 22.5653 2.02516 16.3853 2.35246 1.64 0.695459 
375 1 20.2745 2.13959 18.6026 1.16478 -0.400526 0.394656 
376 1 16.3512 0.019234 16.5744 1.72072 0.311753 2.4082 
377 1 18.3927 0.075633 18.4806 -0.544289 -0.612643 0.640446 
378 1 18.2623 2.17876 16.554 -0.275056 -1.23299 -0.239983 
379 1 16.4548 2.10553 18.6741 -0.55066 -1.58908 -0.385258 
380 1 12.3648 0.0846187 16.5289 -1.6451 -1.54378 2.32166 
381 1 14.3019 0.0177458 18.7122 -1.31146 -1.99909 0.417763 
382 1 14.4043 2.04811 16.6874 -2.52278 1.90438 -1.94558 
383 1 12.2533 2.16779 18.5695 -0.864835 2.36549 1.75987 
384 1 8.1614 28.6212 16.6743 0.479692 -1.67635 2.4718 
385 1 10.2074 28.5215 18.5813 1.99709 -2.47086 -2.09657 
386 1 10.3621 2.04326 16.4724 -2.49629 1.4913 0.384514 
387 1 8.26151 1.98359 18.6521 1.03818 -0.566797 1.87254 
388 1 4.11567 0.0855741 16.5039 0.0397465 0.0510113 2.47843 
389 1 6.12596 0.125575 18.5616 2.00342 -2.18549 -2.04394 
390 1 6.17402 2.05958 16.4541 1.3176 0.135384 -1.35548 
391 1 3.99607 2.14281 18.5296 1.06821 0.0366131 -0.763449 
392 1 28.5723 0.0404755 16.5426 -1.89493 1.41036 -1.8762 
393 1 1.99103 0.0185537 18.5753 -1.87418 0.0486472 -0.115916 
394 1 1.9649 2.14549 16.5796 -0.422118 -0.529984 -0.144762 
395 1 28.534 2.07978 18.5693 -2.43522 -1.42297 0.677076 
396 1 24.4783 24.5064 12.269 -0.0812507 -1.5358 -1.58359 
397 1 26.3844 24.5414 14.5595 -2.26597 -0.558526 -2.36416 
398 1 26.5819 26.4702 12.461 -0.685674 -0.00908229 0.534537 
399 1 24.4854 26.6384 14.3554 2.3557 -2.29566 -2.10187 
400 1 20.5575 24.5713 12.2445 -1.38655 -1.36499 -0.990322 
401 1 22.4707 24.4987 14.1857 -0.281463 2.50534 1.9807 
402 1 22.4411 26.5906 12.2077 -1.90435 2.2627 -1.42864 
403 1 20.5639 26.4909 14.3454 2.19747 1.74015 2.0194 
404 1 16.5009 24.4697 12.4092 1.25963 2.10785 1.01008 
405 1 18.6762 24.3484 14.5268 -0.679348 0.199555 0.153001 
406 1 18.4008 26.5224 12.4314 -1.03868 -1.45214 -1.47483 
407 1 16.4035 26.4648 14.4452 0.571627 -0.435029 -1.19636 
408 1 12.1485 24.5734 12.343 1.28678 2.20686 -0.845087 
409 1 14.3838 24.3722 14.2692 0.152509 1.18641 1.08692 
410 1 14.3126 26.5712 12.3096 1.53424 1.67984 1.72302 
411 1 12.1821 26.6007 14.3405 1.86136 -2.28103 -0.331906 
412 1 8.28608 24.4883 12.4272 -1.59313 1.7314 -1.82959 
413 1 10.1975 24.4403 14.4398 1.50538 -0.554745 -2.47299 
414 1 10.1934 26.571 12.476 0.567415 -2.26045 0.720121 
415 1 8.1727 26.5533 14.4724 1.83213 -0.113673 -1.19399 
416 1 4.06393 24.4894 12.4483 -1.22246 -2.43316 0.198232 
417 1 6.01417 24.5191 14.5089 0.458256 -1.17764 1.57633 
418 1 6.14626 26.4103 12.4541 -1.6763 -0.783133 0.209858 
419 1 4.09023 26.5122 14.5547 -0.440519 -2.06597 1.22218 
420 1 28.5421 24.3633 12.4042 -1.18752 1.2017 -1.85712 
421 1 1.8916 24.4567 14.4985 0.494367 0.90896 1.60738 
422 1 2.0468 26.5177 12.5715 0.138685 2.28184 1.90519 
423 1 28.5174 26.5737 14.5278 2.3095 1.1127 -1.45403 
424 1 24.5481 20.3536 12.2504 0.0390894 -0.382641 -1.42785 
425 1 26.5743 20.4185 14.4906 -0.435269 1.27058 -0.757246 
426 1 26.5165 22.4794 12.3315 1.5618 -1.97339 -2.55473 
427 1 24.6247 22.385 14.3766 0.797689 0.230841 0.734875 
428 1 20.3805 20.4999 12.3786 0.435217 -1.09604 -1.00439 
429 1 22.5074 20.3405 14.3329 2.05028 0.290445 -0.246807 
430 1 22.4504 22.3134 12.3007 1.48495 0.908108 -2.0906 
431 1 20.5759 22.3696 14.411 2.36975 0.307895 1.22231 
432 1 16.233 20.3885 12.4186 0.962703 -1.17082 -0.445822 
433 1 18.4766 20.463 14.4721 -0.89339 -0.0533445 -0.607651 
434 1 18.3523 22.3562 12.4611 0.979112 -1.27022 0.234372 
435 1 16.4255 22.3935 14.6513 -2.26957 2.55358 0.972777 
436 1 12.2278 20.4608 12.3251 -1.50225 1.11443 0.998409 
437 1 14.1486 20.4982 14.5052 -0.462796 0.207911 2.65354 
438 1 14.4759 22.5496 12.2989 0.479788 -0.0717398 -2.0576 
439 1 12.2051 22.5921 14.3246 -0.0610794 -2.06924 -0.732404 
440 1 8.01023 20.4681 12.3675 -0.0621327 1.44965 0.639808 
441 1 10.2031 20.5422 14.3408 -0.392677 0.877741 2.16054 
442 1 10.0995 22.5342 12.381 1.77084 -0.878329 2.50305 
443 1 8.1181 22.4572 14.6675 1.85181 1.7102 -2.59148 
444 1 4.06 20.4082 12.4205 -1.39507 -1.37983 -1.08263 
445 1 6.15313 20.3676 14.6929 -2.49712 -1.84846 1.42978 
446 1 6.06195 22.4543 12.5704 2.2853 -2.44508 1.49642 
447 1 4.03177 22.4812 14.531 -2.45122 0.284101 -0.757108 
448 1 0.0694564 20.4056 12.3494 -1.43371 1.79475 1.87688 
449 1 2.04672 20.6341 14.4479 -1.19645 -0.262828 1.46414 
450 1 2.02073 22.3784 12.2666 1.42252 2.09751 2.27256 
451 1 28.4961 22.4029 14.4439 1.17587 0.224524 0.663679 
452 1 24.5474 16.2798 12.34 -2.4192 2.58281 -1.14791 
453 1 26.6049 16.3636 14.3768 -1.4441 2.33744 2.6309 
454 1 26.6211 18.3718 12.217 1.91495 1.83931 2.62995 
455 1 24.5702 18.3546 14.4124 1.96912 -0.326073 -0.379117 
456 1 20.5405 16.2533 12.4106 0.748071 -0.730353 1.24668 
457 1 22.4942 16.2489 14.523 2.07942 1.89686 -0.962941 
458 1 22.454 18.3952 12.3944 -1.66969 -1.00065 -0.142578 
459 1 20.3794 18.2966 14.3571 2.4331 -1.34447 -0.919898 
460 1 16.2239 16.2789 12.3063 0.208191 -2.04457 0.0212726 
461 1 18.4378 16.228 14.4087 -2.6028 -0.651162 0.527777 
462 1 18.414 18.2658 12.3479 0.168212 -0.185449 2.13252 
463 1 16.3698 18.3467 14.3238 -2.19104 1.42229 2.30366 
464 1 12.3274 16.2227 12.3567 -1.40785 1.45249 0.579703 
465 1 14.2496 16.2737 14.4116 -2.53293 1.00613 0.683826 
466 1 14.1552 18.4608 12.4896 1.94384 -0.697682 -1.42722 
467 1 12.1733 18.498 14.5465 -0.297801 -1.50301 -2.20625 
468 1 8.17664 16.4723 12.3422 0.485839 0.832041 -1.92818 
469 1 10.4214 16.2716 14.4264 -0.113697 -0.384523 -1.22962 
470 1 10.3168 18.2585 12.4424 -0.631381 -0.0494021 1.98699 
471 1 8.25562 18.3294 14.582 -2.21218 1.52565 -0.679404 
472 1 4.15758 16.3363 12.5339 -0.621628 -0.598055 1.77918 
473 1 6.12045 16.3996 14.6386 1.44185 -1.91471 2.10775 
474 1 6.15795 18.5219 12.5813 0.559502 2.68545 -0.44733 
475 1 4.13844 18.4297 14.4044 0.288555 1.02145 -1.90365 
476 1 28.5744 16.4405 12.4932 -1.66928 0.562929 0.731532 
477 1 2.10873 16.2642 14.4408 2.60736 -1.17111 -0.117078 
478 1 1.9874 18.3291 12.2506 1.26524 0.840652 -0.449609 
479 1 0.19125 18.4498 14.5729 -0.877859 0.999293 2.46523 
480 1 24.5868 12.0748 12.4514 -2.32 -1.42566 -1.95447 
481 1 26.4984 12.2647 14.4329 -1.63489 0.219435 0.0300257 
482 1 26.4719 14.3344 12.3123 1.26214 1.81161 -1.30635 
483 1 24.5708 14.1832 14.3494 -1.00882 1.65889 -0.286813 
484 1 20.4738 12.2664 12.3291 -2.41259 2.18072 0.168406 
485 1 22.4309 12.3095 14.4807 -2.10214 -0.654053 -0.308972 
486 1 22.4385 14.1725 12.4335 1.85916 -2.00818 1.57085 
487 1 20.4483 14.3173 14.4453 1.67049 -0.347182 0.309429 
488 1 16.3049 12.0496 12.4227 1.80807 -1.29277 -2.09677 
489 1 18.381 12.2131 14.4818 -0.495039 -0.538414 1.42055 
490 1 18.3825 14.3555 12.4066 1.02997 -0.664692 1.2615 
491 1 16.376 14.2829 14.3557 1.79362 -0.0422292 0.514926 
492 1 12.2008 12.1647 12.2352 1.70323 -1.89273 0.0960902 
493 1 14.3474 12.3532 14.3818 -2.55197 -0.633065 2.27068 
494 1 14.4028 14.2216 12.3017 1.32136 -0.252733 1.36638 
495 1 12.2454 14.2438 14.4001 -2.25168 0.854683 1.93641 
496 1 8.10249 12.1635 12.3607 1.77532 0.078843 -1.94601 
497 1 10.0334 12.1916 14.6449 2.64105 2.5932 -1.68396 
498 1 10.2708 14.2394 12.3963 -1.95381 -1.32122 2.56619 
499 1 8.16685 14.3518 14.2852 2.0371 1.47028 2.54476 
500 1 4.17932 12.1702 12.2654 2.59597 -1.55665 -1.80714 
501 1 6.1148 12.2552 14.57 2.07682 0.642221 1.69099 
502 1 6.03468 14.3368 12.463 -0.590986 -0.244543 1.05955 
503 1 4.09046 14.2307 14.4441 -2.16494 -0.289457 -0.425938 
504 1 28.4922 12.2524 12.4285 -0.94204 -0.656549 0.181221 
505 1 2.02701 12.081 14.2585 1.0613 0.615722 1.99374 
506 1 2.00798 14.2075 12.367 -0.246587 -0.255302 0.631311 
507 1 0.0391104 14.2882 14.4438 0.043296 1.34658 -2.14028 
508 1 24.6669 8.22175 12.3604 0.411917 -0.082192 2.6599 
509 1 26.4914 8.17201 14.368 1.19426 1.63357 -1.29227 
510 1 26.6262 10.1457 12.3716 2.24627 -0.53768 -2.16547 
511 1 24.4125 10.1433 14.5499 1.3852 0.872121 -2.0957 
512 1 20.3151 8.13498 12.3711 1.58416 2.41473 1.7251 
513 1 22.465 8.13723 14.3906 -0.261262 2.47259 -2.03514 
514 1 22.3737 10.0705 12.4026 0.77154 1.10502 2.14486 
515 1 20.4394 10.2267 14.4825 -1.70159 -1.27798 2.32303 
516 1 16.3208 8.26908 12.2551 0.441656 1.01535 1.73162 
517 1 18.3581 8.14953 14.4645 -2.09598 2.1083 -2.13518 
518 1 18.4487 10.2762 12.3501 1.24534 0.631028 -0.72204 
519 1 16.2608 10.2169 14.4508 -0.951039 1.95794 1.57558 
520 1 12.1007 8.01826 12.4287 1.61803 -1.41935 -2.00282 
521 1 14.3515 8.22355 14.3783 -2.47997 -0.210962 -2.23372 
522 1 14.2285 10.225 12.2226 0.316454 -2.27004 -1.22066 
523 1 12.2608 10.2608 14.5345 1.47115 2.3493 0.399768 