ITEM: TIMESTEP
10000
ITEM: NUMBER OF ATOMS
1179
ITEM: BOX BOUNDS pp pp ff
0.0000000000000000e+00 2.8623000000000001e+01
0.0000000000000000e+00 2.8623000000000001e+01
0.0000000000000000e+00 3.5000000000000000e+01
ITEM: ATOMS id type x y z vx vy vz 
1 1 10.2347 10.09 24.4767 0.594316 -2.37273 -2.08342 
2 1 14.5105 10.0234 24.4715 -1.98887 -0.612145 -0.211606 
3 1 12.3533 8.18254 24.5327 1.83396 2.55375 0.166606 
4 1 24.4905 24.5358 20.6921 -0.525733 -0.475557 0.143127 
5 1 26.6378 24.8571 22.6427 1.31011 -1.32798 -1.88946 
6 1 26.7293 26.7563 20.6338 -2.30624 1.97527 1.29549 
7 1 24.6208 26.754 22.5951 -0.0586224 -0.670135 0.6499 
8 1 20.5889 24.4907 20.5631 0.0173959 -1.08532 2.46194 
9 1 22.7292 24.5717 22.8462 0.765133 -0.555854 1.67297 
10 1 22.637 26.7667 20.652 1.02315 1.06275 1.24474 
11 1 20.7437 26.4132 22.897 -2.61056 -0.493626 -0.982718 
12 1 16.5457 24.5974 20.6659 -0.328301 0.024557 1.68753 
13 1 18.6425 24.7542 22.6037 0.43709 -0.0631841 -1.90822 
14 1 18.4649 26.7639 20.4702 0.529556 -0.519393 -1.07691 
15 1 16.3849 26.5417 22.652 2.50443 -1.76512 1.1587 
16 1 12.2449 24.3609 20.6125 1.39952 -1.05324 -0.998468 
17 1 14.3242 24.554 22.5746 1.01529 -0.722754 -2.11935 
18 1 14.3764 26.4738 20.5569 -0.713831 -0.60905 -0.351915 
19 1 12.2495 26.3424 22.6391 1.55092 -2.22437 -2.07725 
20 1 8.14034 24.2717 20.8351 -2.47256 -2.58126 -1.32158 
21 1 10.3069 24.4948 22.6031 0.863481 -1.25768 0.634485 
22 1 10.2021 26.4753 20.6581 1.76182 0.336461 1.22102 
23 1 8.27031 26.4857 22.7971 0.293936 -1.22189 2.2559 
24 1 4.18258 24.4014 20.6859 1.60522 -2.33626 0.618823 
25 1 6.23224 24.5324 22.6283 -0.648247 0.956017 1.84771 
26 1 6.27736 26.407 20.6793 0.976775 -1.16446 2.48493 
27 1 4.19423 26.5761 22.5519 1.07564 1.59544 2.4814 
28 1 0.0973201 24.5601 20.6797 -0.84767 -1.70448 -2.05437 
29 1 1.87531 24.6511 22.7 1.22469 -2.47552 2.22587 
30 1 2.1298 26.812 20.6746 -2.26069 0.697037 -0.222088 
31 1 0.100611 26.7641 22.7453 -2.18945 -1.84233 2.41804 
32 1 24.5421 20.4867 20.6871 -1.64316 -1.48637 1.79451 
33 1 26.4979 20.5317 22.5435 -1.20832 -1.44151 -0.777592 
34 1 26.6491 22.6022 20.7327 -0.906306 -1.28507 -0.627882 
35 1 24.6834 22.5691 22.7861 0.884052 0.190759 -1.03661 
36 1 20.378 20.4651 20.5967 1.55444 -0.431705 1.63519 
37 1 22.638 20.4889 22.7264 2.39169 2.23003 0.205024 
38 1 22.4031 22.4622 20.6492 -1.69215 -0.603707 0.763516 
39 1 20.6297 22.4969 22.7506 0.305193 0.17515 -2.53416 
40 1 16.3417 20.4359 20.6074 2.17974 -2.23302 -1.39043 
41 1 18.3079 20.4515 22.7619 1.82587 2.23356 2.25355 
42 1 18.4431 22.4706 20.6839 -1.38446 1.01874 2.23818 
43 1 16.3577 22.5913 22.6664 1.06119 -1.24733 2.44231 
44 1 12.4579 20.4798 20.5866 -0.58547 2.3124 2.20616 
45 1 14.3722 20.4394 22.7942 0.196541 -0.145663 -0.532121 
46 1 14.4204 22.5243 20.5949 -1.57005 1.46926 -0.332885 
47 1 12.3909 22.4747 22.5295 -2.0345 -0.707933 1.8054 
48 1 8.20282 20.422 20.6599 -0.715084 -0.813441 2.14722 
49 1 10.3376 20.4406 22.7918 0.762279 -1.56936 -0.191259 
50 1 10.2022 22.352 20.679 -0.475166 -0.908749 1.80047 
51 1 8.19842 22.3135 22.7847 -0.15769 -1.61712 0.432654 
52 1 3.95039 20.5317 20.7822 0.352261 -1.66755 -2.07413 
53 1 6.00635 20.4889 22.8068 -2.29548 0.133992 -0.487866 
54 1 6.1127 22.3848 20.9701 1.46852 0.616632 -0.48678 
55 1 3.86687 22.5584 22.8178 -1.13825 2.46842 0.510179 
56 1 0.0779006 20.4005 20.7264 -0.820289 -0.569902 0.319102 
57 1 2.07425 20.4115 22.7266 1.13743 1.9996 -1.96348 
58 1 1.95434 22.5123 20.798 0.380296 0.0154432 -0.208144 
59 1 28.4758 22.459 22.7016 -2.57075 0.716697 1.57614 
60 1 24.5572 16.4467 20.7049 1.09945 0.00715662 1.36693 
61 1 26.7086 16.3331 22.5133 0.921512 -1.43869 -0.304064 
62 1 26.534 18.3334 20.6645 2.42489 2.11212 0.787299 
63 1 24.5664 18.4545 22.8634 -1.65126 -2.02318 -1.01952 
64 1 20.2739 16.3544 20.5023 1.88794 2.15192 2.03233 
65 1 22.5347 16.1071 22.543 -0.0985749 0.784469 -1.80578 
66 1 22.5915 18.4344 20.7906 0.796086 -1.9787 0.593821 
67 1 20.417 18.4689 22.6423 1.68821 -0.439981 -1.84013 
68 1 16.3561 16.2718 20.8086 2.53909 1.71087 2.0079 
69 1 18.5131 16.1375 22.814 1.52512 2.35619 2.64395 
70 1 18.26 18.323 20.7379 -2.37505 -1.78457 -2.20585 
71 1 16.3318 18.3107 22.9856 0.878331 -2.06471 0.00566113 
72 1 12.2649 16.4956 20.5379 1.85788 -2.3201 0.840194 
73 1 14.342 16.3197 22.9285 0.538816 -1.38198 -1.79974 
74 1 14.4585 18.2878 20.7177 -2.11867 -1.59584 -1.94818 
75 1 12.3225 18.4411 22.6766 1.86144 0.141344 -2.12192 
76 1 8.05005 16.4051 20.6946 -2.05252 -1.01618 1.08377 
77 1 10.2758 16.4653 22.556 -0.655301 2.38556 0.700067 
78 1 10.1647 18.6723 20.7177 -1.91956 1.04592 0.109071 
79 1 8.04603 18.5221 22.7265 -2.46413 -1.80125 -0.863305 
80 1 4.06651 16.2899 20.5331 -1.71249 1.83724 -2.37022 
81 1 6.20461 16.1542 22.7438 -2.11331 -0.290567 0.200588 
82 1 6.10382 18.4709 20.7511 1.99044 -1.75996 -0.768278 
83 1 4.08538 18.139 22.6278 -0.868504 -2.35022 0.590391 
84 1 0.169598 16.272 20.6514 1.41854 0.467622 -0.961268 
85 1 2.14789 16.2835 22.6411 0.255331 2.00497 -0.374007 
86 1 1.9453 18.3378 20.6237 0.622638 -1.06241 1.35209 
87 1 0.000407062 18.5368 22.6184 1.87494 -2.40348 -2.48317 
88 1 24.6377 12.2778 20.8088 -1.599 -0.098053 1.52126 
89 1 26.8432 12.5043 22.873 2.17081 -1.05117 2.4796 
90 1 26.5824 14.2333 20.589 0.149727 0.746256 -2.42256 
91 1 24.6637 14.2622 22.6606 -0.10952 -0.589801 -0.271423 
92 1 20.3048 12.0884 20.7016 -1.93494 -1.92502 0.267853 
93 1 22.4559 12.2936 22.8009 0.525228 -0.243104 -0.222043 
94 1 22.5136 14.2522 20.7259 -1.42705 -0.0861512 -1.89195 
95 1 20.4723 14.2392 22.8099 -2.5166 -2.03206 0.97992 
96 1 16.3345 12.3621 20.6637 1.4582 -0.816973 0.167035 
97 1 18.6268 12.1627 22.8777 1.46795 1.41603 2.40467 
98 1 18.46 14.0889 20.757 -2.00136 -1.89799 0.750437 
99 1 16.3795 14.3253 22.7543 -0.420498 -0.204272 0.361979 
100 1 12.4102 12.4924 20.8327 1.89018 -1.88091 0.89928 
101 1 14.298 12.3158 22.9589 2.44787 2.2645 0.612771 
102 1 14.2715 14.3659 20.7245 1.97717 -0.513473 -0.696001 
103 1 12.1815 14.429 22.6505 -1.56208 -0.292514 -1.21745 
104 1 8.19342 12.2178 20.7314 -1.66302 -1.49005 2.49979 
105 1 10.2708 12.2223 22.5902 0.453479 -1.10381 -0.652115 
106 1 10.1579 14.3351 20.6431 0.501023 -0.154912 0.523333 
107 1 8.18933 14.224 22.6253 1.15862 -1.8392 -2.25898 
108 1 4.20957 12.0867 20.6308 -0.0104306 0.724784 1.85636 
109 1 6.24128 12.094 22.6621 0.183647 2.23466 -0.223759 
110 1 6.086 14.2013 20.5073 1.02198 2.14338 -0.680381 
111 1 4.26881 14.12 22.627 0.135108 0.228693 0.114513 
112 1 0.0584319 12.2495 20.7517 0.314821 0.284924 0.98565 
113 1 2.04923 12.1913 22.8147 -1.34375 1.97126 1.68702 
114 1 2.11624 14.2271 20.7705 2.40805 0.785297 1.66443 
115 1 0.109334 14.4611 22.7387 -1.62407 1.2266 0.641687 
116 1 24.6401 8.36515 20.9361 -2.38663 1.93933 2.37917 
117 1 26.5489 7.98072 22.9147 2.46087 1.68231 1.96746 
118 1 26.6974 10.2733 20.8 0.038287 0.522182 -2.08334 
119 1 24.7419 10.4895 22.9477 -0.500331 -1.302 1.71877 
120 1 20.3407 8.18646 20.7132 -1.38043 0.954753 1.48083 
121 1 22.5408 8.25928 22.7011 0.761229 1.65059 0.909735 
122 1 22.581 10.3285 20.7003 0.804035 1.20594 -2.30195 
123 1 20.574 10.1756 22.8195 -2.32439 -0.637441 2.39729 
124 1 16.3547 8.14337 20.6757 -0.741735 -0.114345 -1.04095 
125 1 18.3935 8.27241 22.6517 1.76299 -0.730694 0.0551741 
126 1 18.2716 10.2659 20.5754 -0.627204 -0.0947184 0.184156 
127 1 16.6131 10.3405 22.7624 2.30031 0.140625 1.45297 
128 1 12.3545 8.13893 20.6818 2.008 1.26201 1.15124 
129 1 14.5111 8.28353 22.7019 1.22352 -1.329 1.8761 
130 1 14.517 10.3279 20.7505 -1.87817 -2.43405 0.282131 
131 1 12.355 10.2247 22.562 0.540956 -1.94707 0.0867857 
132 1 8.27587 8.02826 20.6472 -1.41876 -1.5681 0.0289739 
133 1 10.3773 8.05532 22.6785 2.4335 0.792081 0.917236 
134 1 10.289 10.1783 20.7214 1.67932 1.37337 0.0815529 
135 1 8.19385 10.0418 22.5808 -0.685723 2.31144 1.73263 
136 1 4.02796 8.03321 20.8554 2.07336 -0.889704 -1.53787 
137 1 6.13419 8.04235 22.6384 1.70666 1.86599 0.889113 
138 1 6.10979 10.0671 20.605 -1.49332 2.53676 1.54938 
139 1 4.16768 10.3056 22.7713 -0.0548675 -0.160456 1.24707 
140 1 0.0735566 8.24704 20.7313 -0.0136591 -1.37107 -0.92654 
141 1 1.96458 8.09025 23.0013 -0.331508 -1.70324 -2.07003 
142 1 2.12287 10.1651 20.8978 -1.21538 -0.188099 0.922906 
143 1 28.5878 10.1962 22.8376 -2.14044 -2.29158 0.346007 
144 1 24.5221 4.23308 20.6761 -0.516568 2.26898 -2.41149 
145 1 26.5971 4.03266 22.9084 -1.83882 1.72684 -0.913156 
146 1 26.5664 6.25094 20.6748 0.294028 0.322579 2.64467 
147 1 24.5757 6.04233 22.7879 -0.745675 1.49525 -1.54818 
148 1 20.5173 4.05168 20.744 0.530792 -0.620263 -1.00971 
149 1 22.6526 4.10692 22.7659 -0.155046 1.09041 1.87768 
150 1 22.6273 6.20937 20.7851 -1.42124 -1.43515 1.76643 
151 1 20.4407 6.18031 22.7209 1.51884 1.20799 0.977492 
152 1 16.4161 4.00244 20.6712 2.38477 0.727799 0.35754 
153 1 18.3567 3.94648 22.5793 0.31845 -1.32851 -0.293037 
154 1 18.3494 5.9391 20.7908 -0.0371228 0.731868 0.93474 
155 1 16.5431 6.00695 22.8146 -1.47718 2.44871 -2.08833 
156 1 12.4747 4.09312 20.7823 -0.998673 0.838211 -1.02881 
157 1 14.2448 3.9246 22.6926 2.20667 1.75385 -0.744243 
158 1 14.4711 5.96177 20.6889 1.40975 -1.28541 -0.991314 
159 1 12.5584 6.03999 22.6799 1.26385 -1.6737 -1.07198 
160 1 8.19086 3.95774 20.8011 1.75176 -1.71911 2.55893 
161 1 10.398 4.04725 22.6703 -1.96506 -2.13241 -0.585559 
162 1 10.3474 5.95606 20.6402 -2.45606 -1.81735 -0.220743 
163 1 8.33555 6.12806 22.6803 -0.441851 0.858677 -1.35482 
164 1 4.19794 4.10179 20.627 0.395324 2.20314 2.08345 
165 1 6.27282 4.1436 22.8411 -1.63173 -2.43817 -1.19179 
166 1 6.27264 6.09857 20.6232 1.83591 -1.10918 -2.24681 
167 1 4.07461 6.13399 22.7161 1.10983 2.39672 0.490418 
168 1 0.0456293 4.16614 20.8799 0.916389 1.1413 1.68707 
169 1 2.02512 3.96799 22.704 -1.97915 1.09113 -1.64017 
170 1 2.02748 6.11899 20.768 -1.5261 -0.684432 0.31258 
171 1 28.5868 6.14224 22.8625 1.07891 -0.888779 -1.65224 
172 1 24.6908 0.0432952 20.6865 -0.922127 -1.12836 -1.03632 
173 1 26.5554 28.6008 22.6893 1.23831 2.07595 -1.98081 
174 1 26.5269 2.17063 20.8486 1.21971 2.49872 -1.51052 
175 1 24.4049 1.93062 22.8551 2.3 0.0846994 0.49013 
176 1 20.5085 0.114324 20.6377 1.28747 -1.10624 0.320024 
177 1 22.4448 0.0427876 22.7978 0.982513 1.36863 -1.39015 
178 1 22.5958 2.14935 20.6786 1.37832 2.54954 2.32288 
179 1 20.469 1.9354 22.8799 0.600748 1.40356 1.41143 
180 1 16.2581 28.5934 20.6123 -2.44086 -1.94405 -1.2486 
181 1 18.4154 28.5631 22.5914 1.56306 -1.54173 -0.163007 
182 1 18.468 1.91279 20.5271 -0.361397 1.95558 -1.01699 
183 1 16.3224 1.82863 22.7243 -2.56493 -0.457201 0.881683 
184 1 12.3303 28.5574 20.5614 -1.17074 -1.18469 1.56629 
185 1 14.2926 28.4544 22.6266 2.45295 -1.07099 -1.93533 
186 1 14.2958 1.98832 20.6349 -1.32097 -1.16539 2.47364 
187 1 12.3395 1.88851 22.6204 -0.851253 0.660772 0.624279 
188 1 8.21657 28.3817 20.765 2.38032 -1.0161 2.50176 
189 1 10.4226 28.3475 22.746 2.32052 0.73739 -0.153456 
190 1 10.3898 2.03703 20.6726 -1.54558 0.474499 -0.132923 
191 1 8.26673 1.80377 22.6031 -0.746081 -0.117515 -2.14834 
192 1 4.18732 0.0253297 20.7271 2.43027 -1.45213 -1.90907 
193 1 6.15593 0.00251837 22.5898 1.84367 -1.17995 -2.16191 
194 1 6.30208 1.97735 20.4868 -1.34603 0.187917 -1.85133 
195 1 4.2159 2.16002 22.5756 2.07673 -1.70929 0.53742 
196 1 0.0798744 0.244694 20.7912 -2.04129 0.0520444 -0.604241 
197 1 2.12648 0.076447 22.8201 1.76971 -2.56168 -0.825768 
198 1 2.17755 1.96546 20.6514 -2.03957 -2.35755 -2.49207 
199 1 0.111858 2.1298 22.7839 0.113385 0.295437 0.320676 
200 1 24.6005 24.55 16.3639 1.51014 1.10771 0.492246 
201 1 26.6407 24.4515 18.6334 0.339793 -2.5615 2.18075 
202 1 26.6729 26.5165 16.4001 0.956074 0.415218 -0.12185 
203 1 24.7117 26.5568 18.725 -2.43161 2.24351 2.47294 
204 1 20.5207 24.4984 16.563 -2.26343 1.45525 -0.970736 
205 1 22.7176 24.5651 18.5309 -2.39113 -0.782364 -2.41476 
206 1 22.5868 26.4739 16.5045 0.563744 0.249677 -1.93754 
207 1 20.5786 26.5245 18.5853 -1.84844 1.73297 -2.15969 
208 1 16.4368 24.5521 16.4738 -0.546076 1.89681 2.3121 
209 1 18.4378 24.5187 18.4927 1.93316 0.646493 0.589894 
210 1 18.5431 26.4218 16.3956 -1.72053 2.26598 -0.652686 
211 1 16.43 26.3987 18.5262 1.32655 -1.51921 -2.4921 
212 1 12.2292 24.4935 16.4249 -0.411278 -1.75005 -1.1608 
213 1 14.3519 24.5219 18.5195 0.921479 -1.97928 1.3034 
214 1 14.3722 26.4977 16.4177 -2.63554 2.18308 -1.14799 
215 1 12.294 26.3586 18.4516 2.32069 -1.59419 -0.225124 
216 1 8.22231 24.511 16.2833 -1.05268 0.750571 2.28789 
217 1 10.1303 24.425 18.614 2.02883 1.76441 -0.602401 
218 1 10.2544 26.5507 16.6206 1.39333 -0.728083 2.2162 
219 1 8.15034 26.586 18.5818 2.04459 0.568735 -2.14304 
220 1 3.93091 24.482 16.599 -2.32163 -1.19728 -1.32927 
221 1 6.11704 24.4903 18.634 1.99655 1.85646 2.31038 
222 1 6.04497 26.687 16.6517 -0.847222 0.609935 1.71969 
223 1 3.95368 26.4998 18.6099 -1.5456 0.240399 -1.37278 
224 1 28.62 24.4526 16.4321 1.12709 0.404889 -1.56064 
225 1 1.91646 24.3228 18.6685 -0.240475 -0.167972 0.123888 
226 1 2.029 26.5948 16.5953 1.39718 1.27671 -2.16667 
227 1 28.5941 26.638 18.5421 2.13092 1.46444 2.13161 
228 1 24.454 20.4222 16.7658 -0.787239 1.93756 -1.39567 
229 1 26.6939 20.5353 18.7163 2.43765 -2.5841 -2.03039 
230 1 26.4769 22.4737 16.5099 2.47615 -2.32554 -1.82771 
231 1 24.5925 22.4751 18.6689 2.53608 -1.94518 0.587729 
232 1 20.3567 20.4555 16.6273 -1.59078 2.53162 -1.45458 
233 1 22.3885 20.4038 18.5858 -1.75995 2.25722 -1.82161 
234 1 22.5236 22.4028 16.5537 0.832936 1.81247 -1.43707 
235 1 20.4723 22.4527 18.5338 0.460227 -2.45153 -1.46629 
236 1 16.3452 20.4184 16.4557 -0.388647 -2.20067 -0.244733 
237 1 18.2417 20.4987 18.4543 -1.96787 -2.37755 0.373268 
238 1 18.3957 22.4584 16.5345 -1.38699 0.360829 -1.3374 
239 1 16.4141 22.5184 18.5904 1.02971 1.71579 1.28108 
240 1 12.3654 20.6182 16.5111 -2.27128 0.0952813 0.97753 
241 1 14.5134 20.3803 18.5612 -2.19358 1.76435 -1.61225 
242 1 14.5374 22.53 16.5908 -1.66978 -0.19414 -1.49284 
243 1 12.3988 22.5554 18.567 2.05701 0.801009 -0.309846 
244 1 8.11053 20.4055 16.542 -0.854591 1.9504 0.607209 
245 1 10.036 20.4108 18.6645 2.3936 -2.1288 -2.52973 
246 1 10.2685 22.5748 16.5197 -1.58356 -1.33867 1.0192 
247 1 7.99916 22.4323 18.6274 -0.919691 -1.92257 -0.25707 
248 1 3.91047 20.5923 16.5817 -0.660855 -2.28465 1.97076 
249 1 6.08686 20.5217 18.6001 -1.99982 -1.97654 0.447123 
250 1 6.16955 22.5425 16.4183 -1.64571 2.57264 -0.526234 
251 1 3.95452 22.4654 18.693 -1.75067 1.72864 -1.96726 
252 1 0.0292983 20.5366 16.4411 -0.622978 -2.10422 -1.57693 
253 1 1.94899 20.4004 18.6092 2.51373 -1.92464 1.54307 
254 1 1.99668 22.4944 16.4526 -1.76684 1.27529 -0.0124579 
255 1 0.0154555 22.3961 18.5824 -0.107857 1.28215 0.561577 
256 1 24.639 16.2741 16.4973 2.28732 0.904333 -0.856319 
257 1 26.6883 16.3367 18.5633 0.927867 1.05311 0.88564 
258 1 26.4442 18.4981 16.4742 -2.48541 0.517039 0.1529 
259 1 24.571 18.2628 18.655 -1.36879 -1.51618 1.56315 
260 1 20.3029 16.2505 16.5473 1.92958 -2.23963 2.21619 
261 1 22.4877 16.2261 18.6882 1.87989 2.53309 2.48994 
262 1 22.4843 18.143 16.5372 1.87961 -2.15209 2.41956 
263 1 20.4512 18.2963 18.543 -2.06183 -0.961881 0.840872 
264 1 16.225 16.2626 16.4175 1.49427 0.362772 0.0209422 
265 1 18.2336 16.1614 18.6455 -2.14136 -2.17953 0.378753 
266 1 18.2136 18.3682 16.4185 2.11521 -1.76841 -1.84486 
267 1 16.4118 18.2248 18.6831 1.33109 1.70171 -0.598192 
268 1 12.2023 16.376 16.5744 -0.90396 1.6326 1.06332 
269 1 14.3551 16.3227 18.53 -0.149943 -1.82559 2.20271 
270 1 14.3627 18.4855 16.4202 -0.313023 1.19991 0.676043 
271 1 12.249 18.4876 18.5118 1.21577 -1.05508 -0.649971 
272 1 8.07234 16.4583 16.5576 0.0147291 1.04267 -2.33303 
273 1 10.1325 16.4012 18.681 2.20231 1.39394 1.39727 
274 1 10.2352 18.3424 16.4762 -0.423301 -0.362862 0.591067 
275 1 8.05837 18.324 18.5405 2.3504 2.06192 2.21637 
276 1 4.01658 16.3366 16.6105 -0.28785 1.73708 -0.960049 
277 1 5.96898 16.2639 18.5951 -0.124058 0.242244 -1.67461 
278 1 6.02318 18.5013 16.4389 -1.27515 2.06613 -0.110113 
279 1 4.25016 18.3764 18.5995 1.81451 -0.760662 2.40187 
280 1 28.411 16.4266 16.4523 -2.14579 1.68854 2.22813 
281 1 2.00503 16.5133 18.5778 -0.903411 0.435872 -2.48414 
282 1 2.0156 18.4274 16.3139 -2.16113 -0.500866 2.53234 
283 1 0.114086 18.4609 18.5538 -0.247504 1.67829 2.13854 
284 1 24.5662 12.3835 16.5133 0.918838 0.575717 0.440283 
285 1 26.4888 12.1559 18.5108 -1.84488 -0.97033 -0.314991 
286 1 26.6687 14.3523 16.3712 1.36527 2.40354 0.404858 
287 1 24.5863 14.3317 18.6484 -2.55448 -2.15562 0.522014 
288 1 20.5049 12.2676 16.4628 -0.143399 -1.39244 -0.173751 
289 1 22.5389 12.3286 18.5466 1.64201 0.278043 0.109702 
290 1 22.426 14.2113 16.5046 -2.28843 -1.30959 -0.639137 
291 1 20.3698 14.2993 18.6934 -0.47731 -0.423394 0.470543 
292 1 16.2079 12.3503 16.4582 0.722005 -0.307895 1.09291 
293 1 18.3499 12.1869 18.6661 1.72445 -1.68257 1.02769 
294 1 18.3866 14.2598 16.6028 0.932185 0.586281 0.620993 
295 1 16.2632 14.2398 18.5919 -0.692919 1.34115 0.988091 
296 1 11.9845 12.3375 16.5587 -2.05639 1.77241 -1.78006 
297 1 14.2413 12.1863 18.5539 0.0452013 1.96656 0.951224 
298 1 14.1447 14.2533 16.5662 -0.908098 -0.0933013 -2.08221 
299 1 12.2055 14.3117 18.6554 -2.42138 2.16008 -1.73404 
300 1 8.24932 12.1321 16.5596 1.4812 -0.21333 -0.596064 
301 1 10.1954 12.193 18.7749 -1.65579 0.108321 1.03946 
302 1 10.2034 14.3385 16.5356 0.578364 0.791409 0.0657279 
303 1 8.26798 14.2492 18.4725 -0.612088 -1.64112 -1.33951 
304 1 4.14334 12.3312 16.4904 2.11702 2.43675 0.308218 
305 1 6.19957 12.319 18.6365 0.798769 1.3823 -1.12324 
306 1 6.19712 14.3459 16.5906 1.05603 0.595821 -0.751814 
307 1 3.90414 14.252 18.5022 -0.632931 -2.45189 -2.21978 
308 1 0.101492 12.2949 16.5854 1.49337 0.873657 0.0153593 
309 1 1.93122 12.2808 18.708 -2.07408 1.88512 -1.12485 
310 1 1.90675 14.4466 16.6587 0.132684 1.2261 -2.41974 
311 1 28.4408 14.2826 18.5936 0.376133 -2.12709 0.0729401 
312 1 24.4511 8.12367 16.629 0.623129 1.96578 -1.78501 
313 1 26.4774 8.29936 18.6813 0.397564 -1.87718 1.06283 
314 1 26.6928 10.1812 16.4845 2.11979 2.11909 -1.94645 
315 1 24.6 10.2644 18.6002 -0.371335 1.85377 -1.03094 
316 1 20.463 8.12909 16.5744 -2.25376 2.29464 1.04572 
317 1 22.481 8.29338 18.7917 1.50703 1.00408 1.09723 
318 1 22.401 10.271 16.6611 1.24827 -2.58444 2.64481 
319 1 20.3431 10.1728 18.5905 1.5952 1.40218 -0.805558 
320 1 16.4285 8.18096 16.5342 -1.43786 0.814767 1.40486 
321 1 18.4442 8.04191 18.5929 1.91676 1.43612 0.928376 
322 1 18.3396 10.3173 16.5273 1.11701 -2.17269 0.600658 
323 1 16.39 10.1473 18.4493 1.83209 2.57004 -2.51881 
324 1 12.2242 8.02248 16.5211 -0.640907 -0.877675 2.39671 
325 1 14.278 8.19793 18.5123 -0.186683 1.45386 1.75873 
326 1 14.182 10.2841 16.4847 2.50338 1.53403 -2.00062 
327 1 12.1296 10.2656 18.7572 2.02313 -0.0796478 -2.13559 
328 1 8.15132 8.12977 16.5158 -2.29477 1.64742 -0.16749 
329 1 10.2683 8.14025 18.6097 -2.66842 2.53112 0.65013 
330 1 10.2543 10.0146 16.5174 -1.3403 2.50712 -1.1696 
331 1 8.1233 10.1788 18.583 -0.835467 -0.0668246 -0.495167 
332 1 4.12263 8.29993 16.4796 -1.2563 0.725287 -0.123629 
333 1 5.98395 8.09091 18.7023 -1.02922 -1.27945 0.0431437 
334 1 6.10323 10.3372 16.5969 0.624157 -1.60957 2.14043 
335 1 4.10897 10.1774 18.6265 1.49539 -1.64127 1.31125 
336 1 0.00150168 8.22501 16.6482 -1.13725 -1.59084 -1.39337 
337 1 2.04687 8.30133 18.6518 -0.713001 -2.31636 1.141 
338 1 2.07582 10.1531 16.4291 1.41077 0.272806 0.762352 
339 1 0.00681652 10.2408 18.6621 1.60204 1.50581 -1.42761 
340 1 24.5013 4.21331 16.5944 -2.25659 1.65658 2.42358 
341 1 26.5901 4.24452 18.5895 -2.35677 -2.28923 -1.8551 
342 1 26.6076 6.14632 16.5883 1.34679 -0.461717 -1.99136 
343 1 24.5766 6.35911 18.5773 1.28331 1.98383 -0.993328 
344 1 20.5106 4.04488 16.6588 -1.2859 -1.29731 2.43464 
345 1 22.5801 4.28175 18.6574 0.942273 -2.00289 0.943304 
346 1 22.4067 6.08245 16.6145 1.60856 1.48873 -1.71081 
347 1 20.5343 6.26008 18.6634 0.660924 0.767816 -0.0055627 
348 1 16.3305 4.00432 16.5467 1.01493 -1.5423 0.659174 
349 1 18.4765 4.00994 18.5276 -0.609868 -0.849295 -0.548838 
350 1 18.4747 6.1205 16.3969 -0.84255 0.877533 2.55613 
351 1 16.3715 6.08713 18.5587 -2.13721 -0.184704 0.599932 
352 1 12.3245 4.11705 16.5575 0.0686811 0.132388 -1.36254 
353 1 14.3295 4.1262 18.4393 1.01921 2.50402 -0.985523 
354 1 14.5339 6.05339 16.3934 -0.50804 -0.458802 0.0425661 
355 1 12.3728 6.04823 18.7441 1.35031 1.39251 -1.62282 
356 1 8.18829 4.04437 16.4579 -1.92336 -0.276452 -2.52887 
357 1 10.3763 4.04389 18.6679 2.36853 -0.939205 1.14473 
358 1 10.2298 6.11584 16.6414 1.46262 0.53217 -1.13666 
359 1 8.20612 6.03555 18.5849 -0.262134 0.977046 0.562307 
360 1 4.14282 4.12031 16.5663 -1.09997 -0.985394 2.11572 
361 1 6.22235 4.04369 18.4724 -1.76167 -0.484256 -0.00361551 
362 1 6.17691 6.24849 16.5253 2.44199 2.47555 0.33071 
363 1 4.06207 6.1523 18.6456 -1.99122 1.69711 0.239103 
364 1 0.0346751 4.2987 16.5152 2.4702 1.94687 -1.3884 
365 1 2.00535 4.044 18.5577 -0.663344 -2.37148 -1.86262 
366 1 2.11066 6.17153 16.532 0.0931271 -1.11023 1.10186 
367 1 0.125362 6.21249 18.7475 0.847456 0.668999 -1.9653 
368 1 24.5704 28.5804 16.498 1.06598 0.948098 -0.819607 
369 1 26.5818 0.15627 18.611 2.38747 -0.933664 0.365308 
370 1 26.6488 2.1826 16.5788 0.456762 1.91248 -0.376118 
371 1 24.6761 2.12537 18.5959 1.65254 -0.0395774 -1.60871 
372 1 20.5422 28.5919 16.5404 0.447869 -1.48546 1.38059 
373 1 22.6097 28.6121 18.5791 0.89561 1.42625 1.90831 
374 1 22.5268 2.09914 16.5858 2.27801 0.843871 0.190718 
375 1 20.5991 1.96118 18.6078 -2.17334 -2.35478 2.24773 
376 1 16.4773 28.4447 16.5195 -0.0690615 1.24356 -1.08354 
377 1 18.4416 28.4691 18.4908 0.590823 1.53324 0.454631 
378 1 18.4576 1.99461 16.5493 -0.657709 -1.55923 -2.17881 
379 1 16.3469 1.99248 18.6123 1.62519 -0.69375 0.217947 
380 1 12.353 28.4859 16.4508 1.61927 -1.07735 0.729406 
381 1 14.3661 28.4635 18.5402 0.825062 -0.114418 -2.27301 
382 1 14.4288 1.9693 16.5415 -1.0924 1.05643 -0.694347 
383 1 12.4212 2.02504 18.5163 0.156893 1.20772 1.68429 
384 1 8.27164 28.6101 16.5582 -1.7656 1.14776 0.606775 
385 1 10.4645 0.0196542 18.5098 0.308999 1.53705 1.81783 
386 1 10.3644 2.00178 16.4498 -0.43092 1.98235 0.350598 
387 1 8.36485 2.06532 18.6291 -1.59707 1.13479 1.75576 
388 1 4.02016 28.6143 16.5043 -0.320005 -1.38231 -2.14023 
389 1 6.19645 28.4881 18.6858 -2.1341 -0.0685391 1.9882 
390 1 6.18469 1.97773 16.4916 -0.991946 -0.85882 1.09228 
391 1 4.18314 2.09052 18.466 1.53017 -1.39015 1.84463 
392 1 28.5746 28.6083 16.3472 1.336 0.712863 -0.271023 
393 1 2.00317 28.5766 18.5543 -0.425955 1.96648 -0.320854 
394 1 1.94338 1.98813 16.7445 1.93804 -0.879065 -0.104146 
395 1 28.5435 2.09321 18.6691 -2.22097 0.436905 -0.774987 
396 1 24.5297 24.5755 12.3871 1.13248 2.30411 -1.43724 
397 1 26.5574 24.4669 14.3158 -2.4786 0.237061 -0.0990744 
398 1 26.6798 26.6999 12.3253 -0.453574 2.05577 -2.01372 
399 1 24.5275 26.5784 14.4131 1.09629 -0.911252 1.45215 
400 1 20.3471 24.4813 12.3037 -1.38035 2.29072 -2.11316 
401 1 22.4138 24.5063 14.5905 -0.944803 -1.43622 -0.43452 
402 1 22.4531 26.5189 12.3193 0.811621 -1.71024 0.254839 
403 1 20.4998 26.4417 14.4535 0.890507 -0.868879 -1.05355 
404 1 16.3339 24.4902 12.3142 -1.46192 -1.78875 0.540572 
405 1 18.3894 24.4016 14.39 -1.23609 1.2486 0.166261 
406 1 18.5437 26.4464 12.3466 -1.10844 2.5675 1.63717 
407 1 16.569 26.5344 14.3768 -0.863307 1.51501 1.8843 
408 1 12.4239 24.6378 12.3259 0.304364 1.8836 -0.463867 
409 1 14.3348 24.5467 14.3704 -2.07793 -0.336793 0.556071 
410 1 14.5031 26.7709 12.4122 -1.56611 -0.198564 2.40241 
411 1 12.3411 26.6154 14.4251 1.8415 -1.0014 -0.917353 
412 1 8.00161 24.6402 12.3723 -2.4173 -2.44523 0.135036 
413 1 10.3081 24.5712 14.4764 0.953917 0.67378 0.152768 
414 1 10.1596 26.5526 12.4109 1.64288 -0.628248 0.410134 
415 1 8.23201 26.5085 14.5831 -2.55157 -0.296068 1.64332 
416 1 4.05021 24.5492 12.4116 -1.72758 -1.47269 2.06378 
417 1 5.99181 24.5683 14.5438 1.75161 0.908997 -0.713447 
418 1 6.16496 26.5874 12.4178 -2.65903 -1.49085 -0.458375 
419 1 4.23812 26.6463 14.3575 1.55352 -0.125688 1.33424 
420 1 0.154128 24.4755 12.4033 -0.814451 -1.56335 1.69574 
421 1 2.02339 24.5755 14.388 -2.30375 2.02625 2.57182 
422 1 2.04142 26.4778 12.3657 0.866353 0.0555658 1.19688 
423 1 28.525 26.4677 14.3726 1.45665 -0.773622 -1.54102 
424 1 24.4849 20.3761 12.3294 0.962376 1.99642 2.01295 
425 1 26.5499 20.4205 14.5041 -2.23547 2.04364 -2.54579 
426 1 26.6273 22.49 12.4217 -0.237022 0.485343 -0.467617 
427 1 24.5221 22.4361 14.4288 -2.49053 -1.99365 -0.302525 
428 1 20.5433 20.5994 12.385 2.2148 -2.4414 1.85555 
429 1 22.5519 20.2898 14.4634 2.32168 -0.699778 -1.98166 
430 1 22.4709 22.5361 12.3722 2.4836 -2.29063 0.562857 
431 1 20.4937 22.4817 14.4808 -2.27901 0.453463 1.02841 
432 1 16.4227 20.4503 12.308 -2.547 -1.78108 -0.932749 
433 1 18.441 20.468 14.4294 -0.364399 -1.54757 0.739802 
434 1 18.4384 22.4659 12.2784 -1.81049 -2.13498 -2.10413 
435 1 16.4372 22.4062 14.3477 -0.544411 -1.40958 -1.44876 
436 1 12.3209 20.4854 12.371 2.22518 -0.193875 -2.25504 
437 1 14.3075 20.5096 14.3583 -1.60064 -1.47825 2.63226 
438 1 14.3738 22.4057 12.2232 -0.663297 -1.58087 -0.666634 
439 1 12.3761 22.4893 14.5303 1.64278 -2.36322 1.29776 
440 1 8.11086 20.4212 12.4487 1.602 0.768077 -0.842476 
441 1 10.1557 20.481 14.5202 -1.15158 -2.55779 1.88116 
442 1 10.3085 22.5885 12.4361 -0.231009 2.42542 -2.30077 
443 1 8.16108 22.6013 14.3352 1.9412 0.056654 -1.37862 
444 1 4.12007 20.4072 12.5079 2.04574 -0.852959 0.477546 
445 1 6.03397 20.4418 14.5076 -1.55583 0.358983 -1.05717 
446 1 6.16159 22.4876 12.3822 0.388146 1.54015 1.78196 
447 1 4.21831 22.5009 14.3448 1.75692 1.57787 -0.708901 
448 1 28.5121 20.6247 12.3041 0.726341 -0.461786 2.06535 
449 1 2.06209 20.4259 14.2952 2.02915 2.02765 0.093813 
450 1 2.12998 22.5573 12.321 1.92516 1.77251 -0.124091 
451 1 28.613 22.3776 14.5054 1.63221 2.5272 2.55793 
452 1 24.5717 16.2826 12.3951 2.07534 0.968563 -1.16056 
453 1 26.5319 16.358 14.3158 -0.168967 1.855 -1.32427 
454 1 26.4918 18.3257 12.2328 -2.54721 0.0342867 -1.71552 
455 1 24.5644 18.4063 14.4417 -0.198415 2.49426 1.92388 
456 1 20.4163 16.3646 12.2836 -2.0812 2.07536 -1.38338 
457 1 22.5521 16.2455 14.4339 0.368604 1.74239 -0.35887 
458 1 22.4136 18.3672 12.525 -0.58719 -0.512366 2.26571 
459 1 20.3713 18.1995 14.499 -0.462867 2.36267 2.04337 
460 1 16.3568 16.2152 12.3578 -2.33519 0.55253 1.97752 
461 1 18.3732 16.3488 14.3836 2.05197 -0.59544 -1.13401 
462 1 18.5828 18.6263 12.3079 -2.58952 -1.69056 2.37821 
463 1 16.2789 18.4477 14.1892 1.92035 -0.893248 1.49294 
464 1 12.126 16.4712 12.2924 0.885114 2.38501 1.90226 
465 1 14.3659 16.3722 14.4594 -0.322766 -0.849503 1.17936 
466 1 14.161 18.416 12.1605 -0.75508 -0.0903695 0.244034 
467 1 12.31 18.4629 14.4087 1.87398 2.26834 2.51366 
468 1 7.96533 16.3247 12.2012 -1.17288 -0.508226 -1.18053 
469 1 10.2192 16.4798 14.3932 -1.94383 -0.0681487 -1.88312 
470 1 10.139 18.4586 12.3882 -0.220294 -0.0544313 -0.863128 
471 1 8.16503 18.3904 14.492 1.26255 -2.55185 2.63677 
472 1 3.97787 16.3296 12.4238 2.2431 -1.60206 -2.11604 
473 1 6.19753 16.399 14.3269 -2.48962 -2.42811 0.948455 
474 1 5.95843 18.4147 12.4121 -0.496421 1.80417 -0.0823748 
475 1 4.06938 18.2468 14.5603 -1.47784 1.8745 -2.26882 
476 1 0.0568074 16.3988 12.3568 1.57558 0.208479 -0.547044 
477 1 1.98526 16.2433 14.3625 -1.99362 -2.13782 2.41084 
478 1 1.97222 18.4952 12.454 2.54031 1.39399 2.25018 
479 1 28.5101 18.4395 14.3005 -0.653183 1.46703 -1.18305 
480 1 24.5577 12.3642 12.2312 -2.65563 -1.71298 1.22041 
481 1 26.7045 12.1498 14.2089 0.561406 -2.53416 2.53133 
482 1 26.7431 14.2254 12.2813 -1.47045 0.906983 1.96157 
483 1 24.6687 14.3781 14.3535 0.0079204 1.37242 -0.283621 
484 1 20.4943 12.1512 12.2037 1.71948 -1.68499 2.06988 
485 1 22.4808 12.2563 14.3415 -0.0529885 0.120921 -1.06491 
486 1 22.4475 14.3546 12.2538 0.719177 -0.874467 -1.06257 
487 1 20.2771 14.3224 14.3449 -1.8007 0.743454 2.6421 
488 1 16.2636 12.2135 12.3208 -2.11209 -0.550701 -0.404692 
489 1 18.3463 12.3999 14.446 1.33223 0.0827042 -1.74464 
490 1 18.2914 14.1894 12.302 0.693764 -0.233658 2.04457 
491 1 16.2677 14.3868 14.3357 2.25971 1.16211 1.91855 
492 1 12.2023 12.3541 12.3729 2.08491 0.233714 1.03549 
493 1 14.2653 12.2348 14.4326 1.7176 -2.04688 2.33427 
494 1 14.2795 14.3421 12.1711 -1.06593 2.45138 1.06911 
495 1 12.3334 14.406 14.3602 -1.91975 -2.1317 0.896109 
496 1 8.08974 12.3319 12.3899 1.32602 -0.012325 2.58159 
497 1 10.2058 12.3805 14.4072 -1.87624 -1.17046 0.766787 
498 1 10.0981 14.4372 12.328 -2.10215 -0.381736 1.58978 
499 1 8.17689 14.3645 14.5194 0.868512 -0.167968 0.188925 
500 1 4.24497 12.0936 12.4537 -1.00402 -0.396352 1.11799 
501 1 6.11352 12.2849 14.3843 0.556616 0.431473 1.82943 
502 1 6.06375 14.2331 12.2888 1.46367 2.55924 -1.57416 
503 1 4.14537 14.391 14.3891 2.01411 -0.339514 1.7662 
504 1 0.0233784 12.1628 12.2008 -2.35765 -1.46802 2.41026 
505 1 2.05627 12.3005 14.4687 -1.94511 -0.572127 -0.55401 
506 1 2.09025 14.2527 12.3927 0.911522 -2.3972 -1.30366 
507 1 28.5745 14.2455 14.3741 -0.509062 -1.99252 -2.11448 
508 1 24.5487 8.20827 12.4707 -2.30982 -0.795438 2.17752 
509 1 26.6963 8.20127 14.5299 -1.17268 -2.46918 -0.730327 
510 1 26.5693 10.1227 12.2826 0.558039 -1.7436 -2.27413 
511 1 24.4996 10.2178 14.3692 1.0496 2.198 -0.705314 
512 1 20.4421 8.24318 12.3419 -1.58572 -1.08648 -1.41825 
513 1 22.3779 8.19099 14.4345 -1.40671 -2.44386 2.31405 
514 1 22.4689 10.2046 12.2264 -1.77129 -0.58762 -0.12519 
515 1 20.402 10.3977 14.4349 -1.18102 -1.68663 0.6151 
516 1 16.4153 8.21647 12.2831 -0.60889 -0.0575643 -1.35355 
517 1 18.494 8.12817 14.5248 0.881583 0.418096 1.30265 
518 1 18.3815 10.2961 12.4913 0.428526 2.06616 0.432269 
519 1 16.3124 10.2263 14.5902 -0.900621 0.369794 -1.94351 
520 1 12.2865 8.13773 12.3396 2.09396 1.02494 2.1641 
521 1 14.2621 8.22958 14.3169 -2.37571 -2.41888 -0.422957 
522 1 14.3154 10.2336 12.3526 2.14305 1.82834 -0.729974 