LAMMPS data file. CGCMM style. atom_style atomic generated by VMD/TopoTools v1.7 on Sat Mar 16 15:51:43 IST 2019
 1179 atoms
 0 bonds
 0 angles
 0 dihedrals
 0 impropers
 1 atom types
 0 bond types
 0 angle types
 0 dihedral types
 0 improper types
 0 28.62300000  xlo xhi
 0 28.62300000  ylo yhi
 0 35.0000 zlo zhi

# Pair Coeffs
#
# 1  Ag

 Masses

 1 107.868202 # Ag

 Atoms # atomic

1 1 10.250000 10.250000 24.219000 # Ag
2 1 14.311500 10.222500 24.219000 # Ag
3 1 12.267000 8.178000 24.219000 # Ag
4 1 24.534000 24.534000 20.445000 # Ag
5 1 26.578501 24.534000 22.489500 # Ag
6 1 26.578501 26.578501 20.445000 # Ag
7 1 24.534000 26.578501 22.489500 # Ag
8 1 20.445000 24.534000 20.445000 # Ag
9 1 22.489500 24.534000 22.489500 # Ag
10 1 22.489500 26.578501 20.445000 # Ag
11 1 20.445000 26.578501 22.489500 # Ag
12 1 16.356001 24.534000 20.445000 # Ag
13 1 18.400499 24.534000 22.489500 # Ag
14 1 18.400499 26.578501 20.445000 # Ag
15 1 16.356001 26.578501 22.489500 # Ag
16 1 12.267000 24.534000 20.445000 # Ag
17 1 14.311500 24.534000 22.489500 # Ag
18 1 14.311500 26.578501 20.445000 # Ag
19 1 12.267000 26.578501 22.489500 # Ag
20 1 8.178000 24.534000 20.445000 # Ag
21 1 10.222500 24.534000 22.489500 # Ag
22 1 10.222500 26.578501 20.445000 # Ag
23 1 8.178000 26.578501 22.489500 # Ag
24 1 4.089000 24.534000 20.445000 # Ag
25 1 6.133500 24.534000 22.489500 # Ag
26 1 6.133500 26.578501 20.445000 # Ag
27 1 4.089000 26.578501 22.489500 # Ag
28 1 0.000000 24.534000 20.445000 # Ag
29 1 2.044500 24.534000 22.489500 # Ag
30 1 2.044500 26.578501 20.445000 # Ag
31 1 0.000000 26.578501 22.489500 # Ag
32 1 24.534000 20.445000 20.445000 # Ag
33 1 26.578501 20.445000 22.489500 # Ag
34 1 26.578501 22.489500 20.445000 # Ag
35 1 24.534000 22.489500 22.489500 # Ag
36 1 20.445000 20.445000 20.445000 # Ag
37 1 22.489500 20.445000 22.489500 # Ag
38 1 22.489500 22.489500 20.445000 # Ag
39 1 20.445000 22.489500 22.489500 # Ag
40 1 16.356001 20.445000 20.445000 # Ag
41 1 18.400499 20.445000 22.489500 # Ag
42 1 18.400499 22.489500 20.445000 # Ag
43 1 16.356001 22.489500 22.489500 # Ag
44 1 12.267000 20.445000 20.445000 # Ag
45 1 14.311500 20.445000 22.489500 # Ag
46 1 14.311500 22.489500 20.445000 # Ag
47 1 12.267000 22.489500 22.489500 # Ag
48 1 8.178000 20.445000 20.445000 # Ag
49 1 10.222500 20.445000 22.489500 # Ag
50 1 10.222500 22.489500 20.445000 # Ag
51 1 8.178000 22.489500 22.489500 # Ag
52 1 4.089000 20.445000 20.445000 # Ag
53 1 6.133500 20.445000 22.489500 # Ag
54 1 6.133500 22.489500 20.445000 # Ag
55 1 4.089000 22.489500 22.489500 # Ag
56 1 0.000000 20.445000 20.445000 # Ag
57 1 2.044500 20.445000 22.489500 # Ag
58 1 2.044500 22.489500 20.445000 # Ag
59 1 0.000000 22.489500 22.489500 # Ag
60 1 24.534000 16.356001 20.445000 # Ag
61 1 26.578501 16.356001 22.489500 # Ag
62 1 26.578501 18.400499 20.445000 # Ag
63 1 24.534000 18.400499 22.489500 # Ag
64 1 20.445000 16.356001 20.445000 # Ag
65 1 22.489500 16.356001 22.489500 # Ag
66 1 22.489500 18.400499 20.445000 # Ag
67 1 20.445000 18.400499 22.489500 # Ag
68 1 16.356001 16.356001 20.445000 # Ag
69 1 18.400499 16.356001 22.489500 # Ag
70 1 18.400499 18.400499 20.445000 # Ag
71 1 16.356001 18.400499 22.489500 # Ag
72 1 12.267000 16.356001 20.445000 # Ag
73 1 14.311500 16.356001 22.489500 # Ag
74 1 14.311500 18.400499 20.445000 # Ag
75 1 12.267000 18.400499 22.489500 # Ag
76 1 8.178000 16.356001 20.445000 # Ag
77 1 10.222500 16.356001 22.489500 # Ag
78 1 10.222500 18.400499 20.445000 # Ag
79 1 8.178000 18.400499 22.489500 # Ag
80 1 4.089000 16.356001 20.445000 # Ag
81 1 6.133500 16.356001 22.489500 # Ag
82 1 6.133500 18.400499 20.445000 # Ag
83 1 4.089000 18.400499 22.489500 # Ag
84 1 0.000000 16.356001 20.445000 # Ag
85 1 2.044500 16.356001 22.489500 # Ag
86 1 2.044500 18.400499 20.445000 # Ag
87 1 0.000000 18.400499 22.489500 # Ag
88 1 24.534000 12.267000 20.445000 # Ag
89 1 26.578501 12.267000 22.489500 # Ag
90 1 26.578501 14.311500 20.445000 # Ag
91 1 24.534000 14.311500 22.489500 # Ag
92 1 20.445000 12.267000 20.445000 # Ag
93 1 22.489500 12.267000 22.489500 # Ag
94 1 22.489500 14.311500 20.445000 # Ag
95 1 20.445000 14.311500 22.489500 # Ag
96 1 16.356001 12.267000 20.445000 # Ag
97 1 18.400499 12.267000 22.489500 # Ag
98 1 18.400499 14.311500 20.445000 # Ag
99 1 16.356001 14.311500 22.489500 # Ag
100 1 12.267000 12.267000 20.445000 # Ag
101 1 14.311500 12.267000 22.489500 # Ag
102 1 14.311500 14.311500 20.445000 # Ag
103 1 12.267000 14.311500 22.489500 # Ag
104 1 8.178000 12.267000 20.445000 # Ag
105 1 10.222500 12.267000 22.489500 # Ag
106 1 10.222500 14.311500 20.445000 # Ag
107 1 8.178000 14.311500 22.489500 # Ag
108 1 4.089000 12.267000 20.445000 # Ag
109 1 6.133500 12.267000 22.489500 # Ag
110 1 6.133500 14.311500 20.445000 # Ag
111 1 4.089000 14.311500 22.489500 # Ag
112 1 0.000000 12.267000 20.445000 # Ag
113 1 2.044500 12.267000 22.489500 # Ag
114 1 2.044500 14.311500 20.445000 # Ag
115 1 0.000000 14.311500 22.489500 # Ag
116 1 24.534000 8.178000 20.445000 # Ag
117 1 26.578501 8.178000 22.489500 # Ag
118 1 26.578501 10.222500 20.445000 # Ag
119 1 24.534000 10.222500 22.489500 # Ag
120 1 20.445000 8.178000 20.445000 # Ag
121 1 22.489500 8.178000 22.489500 # Ag
122 1 22.489500 10.222500 20.445000 # Ag
123 1 20.445000 10.222500 22.489500 # Ag
124 1 16.356001 8.178000 20.445000 # Ag
125 1 18.400499 8.178000 22.489500 # Ag
126 1 18.400499 10.222500 20.445000 # Ag
127 1 16.356001 10.222500 22.489500 # Ag
128 1 12.267000 8.178000 20.445000 # Ag
129 1 14.311500 8.178000 22.489500 # Ag
130 1 14.311500 10.222500 20.445000 # Ag
131 1 12.267000 10.222500 22.489500 # Ag
132 1 8.178000 8.178000 20.445000 # Ag
133 1 10.222500 8.178000 22.489500 # Ag
134 1 10.222500 10.222500 20.445000 # Ag
135 1 8.178000 10.222500 22.489500 # Ag
136 1 4.089000 8.178000 20.445000 # Ag
137 1 6.133500 8.178000 22.489500 # Ag
138 1 6.133500 10.222500 20.445000 # Ag
139 1 4.089000 10.222500 22.489500 # Ag
140 1 0.000000 8.178000 20.445000 # Ag
141 1 2.044500 8.178000 22.489500 # Ag
142 1 2.044500 10.222500 20.445000 # Ag
143 1 0.000000 10.222500 22.489500 # Ag
144 1 24.534000 4.089000 20.445000 # Ag
145 1 26.578501 4.089000 22.489500 # Ag
146 1 26.578501 6.133500 20.445000 # Ag
147 1 24.534000 6.133500 22.489500 # Ag
148 1 20.445000 4.089000 20.445000 # Ag
149 1 22.489500 4.089000 22.489500 # Ag
150 1 22.489500 6.133500 20.445000 # Ag
151 1 20.445000 6.133500 22.489500 # Ag
152 1 16.356001 4.089000 20.445000 # Ag
153 1 18.400499 4.089000 22.489500 # Ag
154 1 18.400499 6.133500 20.445000 # Ag
155 1 16.356001 6.133500 22.489500 # Ag
156 1 12.267000 4.089000 20.445000 # Ag
157 1 14.311500 4.089000 22.489500 # Ag
158 1 14.311500 6.133500 20.445000 # Ag
159 1 12.267000 6.133500 22.489500 # Ag
160 1 8.178000 4.089000 20.445000 # Ag
161 1 10.222500 4.089000 22.489500 # Ag
162 1 10.222500 6.133500 20.445000 # Ag
163 1 8.178000 6.133500 22.489500 # Ag
164 1 4.089000 4.089000 20.445000 # Ag
165 1 6.133500 4.089000 22.489500 # Ag
166 1 6.133500 6.133500 20.445000 # Ag
167 1 4.089000 6.133500 22.489500 # Ag
168 1 0.000000 4.089000 20.445000 # Ag
169 1 2.044500 4.089000 22.489500 # Ag
170 1 2.044500 6.133500 20.445000 # Ag
171 1 0.000000 6.133500 22.489500 # Ag
172 1 24.534000 0.000000 20.445000 # Ag
173 1 26.578501 0.000000 22.489500 # Ag
174 1 26.578501 2.044500 20.445000 # Ag
175 1 24.534000 2.044500 22.489500 # Ag
176 1 20.445000 0.000000 20.445000 # Ag
177 1 22.489500 0.000000 22.489500 # Ag
178 1 22.489500 2.044500 20.445000 # Ag
179 1 20.445000 2.044500 22.489500 # Ag
180 1 16.356001 0.000000 20.445000 # Ag
181 1 18.400499 0.000000 22.489500 # Ag
182 1 18.400499 2.044500 20.445000 # Ag
183 1 16.356001 2.044500 22.489500 # Ag
184 1 12.267000 0.000000 20.445000 # Ag
185 1 14.311500 0.000000 22.489500 # Ag
186 1 14.311500 2.044500 20.445000 # Ag
187 1 12.267000 2.044500 22.489500 # Ag
188 1 8.178000 0.000000 20.445000 # Ag
189 1 10.222500 0.000000 22.489500 # Ag
190 1 10.222500 2.044500 20.445000 # Ag
191 1 8.178000 2.044500 22.489500 # Ag
192 1 4.089000 0.000000 20.445000 # Ag
193 1 6.133500 0.000000 22.489500 # Ag
194 1 6.133500 2.044500 20.445000 # Ag
195 1 4.089000 2.044500 22.489500 # Ag
196 1 0.000000 0.000000 20.445000 # Ag
197 1 2.044500 0.000000 22.489500 # Ag
198 1 2.044500 2.044500 20.445000 # Ag
199 1 0.000000 2.044500 22.489500 # Ag
200 1 24.534000 24.534000 16.356001 # Ag
201 1 26.578501 24.534000 18.400499 # Ag
202 1 26.578501 26.578501 16.356001 # Ag
203 1 24.534000 26.578501 18.400499 # Ag
204 1 20.445000 24.534000 16.356001 # Ag
205 1 22.489500 24.534000 18.400499 # Ag
206 1 22.489500 26.578501 16.356001 # Ag
207 1 20.445000 26.578501 18.400499 # Ag
208 1 16.356001 24.534000 16.356001 # Ag
209 1 18.400499 24.534000 18.400499 # Ag
210 1 18.400499 26.578501 16.356001 # Ag
211 1 16.356001 26.578501 18.400499 # Ag
212 1 12.267000 24.534000 16.356001 # Ag
213 1 14.311500 24.534000 18.400499 # Ag
214 1 14.311500 26.578501 16.356001 # Ag
215 1 12.267000 26.578501 18.400499 # Ag
216 1 8.178000 24.534000 16.356001 # Ag
217 1 10.222500 24.534000 18.400499 # Ag
218 1 10.222500 26.578501 16.356001 # Ag
219 1 8.178000 26.578501 18.400499 # Ag
220 1 4.089000 24.534000 16.356001 # Ag
221 1 6.133500 24.534000 18.400499 # Ag
222 1 6.133500 26.578501 16.356001 # Ag
223 1 4.089000 26.578501 18.400499 # Ag
224 1 0.000000 24.534000 16.356001 # Ag
225 1 2.044500 24.534000 18.400499 # Ag
226 1 2.044500 26.578501 16.356001 # Ag
227 1 0.000000 26.578501 18.400499 # Ag
228 1 24.534000 20.445000 16.356001 # Ag
229 1 26.578501 20.445000 18.400499 # Ag
230 1 26.578501 22.489500 16.356001 # Ag
231 1 24.534000 22.489500 18.400499 # Ag
232 1 20.445000 20.445000 16.356001 # Ag
233 1 22.489500 20.445000 18.400499 # Ag
234 1 22.489500 22.489500 16.356001 # Ag
235 1 20.445000 22.489500 18.400499 # Ag
236 1 16.356001 20.445000 16.356001 # Ag
237 1 18.400499 20.445000 18.400499 # Ag
238 1 18.400499 22.489500 16.356001 # Ag
239 1 16.356001 22.489500 18.400499 # Ag
240 1 12.267000 20.445000 16.356001 # Ag
241 1 14.311500 20.445000 18.400499 # Ag
242 1 14.311500 22.489500 16.356001 # Ag
243 1 12.267000 22.489500 18.400499 # Ag
244 1 8.178000 20.445000 16.356001 # Ag
245 1 10.222500 20.445000 18.400499 # Ag
246 1 10.222500 22.489500 16.356001 # Ag
247 1 8.178000 22.489500 18.400499 # Ag
248 1 4.089000 20.445000 16.356001 # Ag
249 1 6.133500 20.445000 18.400499 # Ag
250 1 6.133500 22.489500 16.356001 # Ag
251 1 4.089000 22.489500 18.400499 # Ag
252 1 0.000000 20.445000 16.356001 # Ag
253 1 2.044500 20.445000 18.400499 # Ag
254 1 2.044500 22.489500 16.356001 # Ag
255 1 0.000000 22.489500 18.400499 # Ag
256 1 24.534000 16.356001 16.356001 # Ag
257 1 26.578501 16.356001 18.400499 # Ag
258 1 26.578501 18.400499 16.356001 # Ag
259 1 24.534000 18.400499 18.400499 # Ag
260 1 20.445000 16.356001 16.356001 # Ag
261 1 22.489500 16.356001 18.400499 # Ag
262 1 22.489500 18.400499 16.356001 # Ag
263 1 20.445000 18.400499 18.400499 # Ag
264 1 16.356001 16.356001 16.356001 # Ag
265 1 18.400499 16.356001 18.400499 # Ag
266 1 18.400499 18.400499 16.356001 # Ag
267 1 16.356001 18.400499 18.400499 # Ag
268 1 12.267000 16.356001 16.356001 # Ag
269 1 14.311500 16.356001 18.400499 # Ag
270 1 14.311500 18.400499 16.356001 # Ag
271 1 12.267000 18.400499 18.400499 # Ag
272 1 8.178000 16.356001 16.356001 # Ag
273 1 10.222500 16.356001 18.400499 # Ag
274 1 10.222500 18.400499 16.356001 # Ag
275 1 8.178000 18.400499 18.400499 # Ag
276 1 4.089000 16.356001 16.356001 # Ag
277 1 6.133500 16.356001 18.400499 # Ag
278 1 6.133500 18.400499 16.356001 # Ag
279 1 4.089000 18.400499 18.400499 # Ag
280 1 0.000000 16.356001 16.356001 # Ag
281 1 2.044500 16.356001 18.400499 # Ag
282 1 2.044500 18.400499 16.356001 # Ag
283 1 0.000000 18.400499 18.400499 # Ag
284 1 24.534000 12.267000 16.356001 # Ag
285 1 26.578501 12.267000 18.400499 # Ag
286 1 26.578501 14.311500 16.356001 # Ag
287 1 24.534000 14.311500 18.400499 # Ag
288 1 20.445000 12.267000 16.356001 # Ag
289 1 22.489500 12.267000 18.400499 # Ag
290 1 22.489500 14.311500 16.356001 # Ag
291 1 20.445000 14.311500 18.400499 # Ag
292 1 16.356001 12.267000 16.356001 # Ag
293 1 18.400499 12.267000 18.400499 # Ag
294 1 18.400499 14.311500 16.356001 # Ag
295 1 16.356001 14.311500 18.400499 # Ag
296 1 12.267000 12.267000 16.356001 # Ag
297 1 14.311500 12.267000 18.400499 # Ag
298 1 14.311500 14.311500 16.356001 # Ag
299 1 12.267000 14.311500 18.400499 # Ag
300 1 8.178000 12.267000 16.356001 # Ag
301 1 10.222500 12.267000 18.400499 # Ag
302 1 10.222500 14.311500 16.356001 # Ag
303 1 8.178000 14.311500 18.400499 # Ag
304 1 4.089000 12.267000 16.356001 # Ag
305 1 6.133500 12.267000 18.400499 # Ag
306 1 6.133500 14.311500 16.356001 # Ag
307 1 4.089000 14.311500 18.400499 # Ag
308 1 0.000000 12.267000 16.356001 # Ag
309 1 2.044500 12.267000 18.400499 # Ag
310 1 2.044500 14.311500 16.356001 # Ag
311 1 0.000000 14.311500 18.400499 # Ag
312 1 24.534000 8.178000 16.356001 # Ag
313 1 26.578501 8.178000 18.400499 # Ag
314 1 26.578501 10.222500 16.356001 # Ag
315 1 24.534000 10.222500 18.400499 # Ag
316 1 20.445000 8.178000 16.356001 # Ag
317 1 22.489500 8.178000 18.400499 # Ag
318 1 22.489500 10.222500 16.356001 # Ag
319 1 20.445000 10.222500 18.400499 # Ag
320 1 16.356001 8.178000 16.356001 # Ag
321 1 18.400499 8.178000 18.400499 # Ag
322 1 18.400499 10.222500 16.356001 # Ag
323 1 16.356001 10.222500 18.400499 # Ag
324 1 12.267000 8.178000 16.356001 # Ag
325 1 14.311500 8.178000 18.400499 # Ag
326 1 14.311500 10.222500 16.356001 # Ag
327 1 12.267000 10.222500 18.400499 # Ag
328 1 8.178000 8.178000 16.356001 # Ag
329 1 10.222500 8.178000 18.400499 # Ag
330 1 10.222500 10.222500 16.356001 # Ag
331 1 8.178000 10.222500 18.400499 # Ag
332 1 4.089000 8.178000 16.356001 # Ag
333 1 6.133500 8.178000 18.400499 # Ag
334 1 6.133500 10.222500 16.356001 # Ag
335 1 4.089000 10.222500 18.400499 # Ag
336 1 0.000000 8.178000 16.356001 # Ag
337 1 2.044500 8.178000 18.400499 # Ag
338 1 2.044500 10.222500 16.356001 # Ag
339 1 0.000000 10.222500 18.400499 # Ag
340 1 24.534000 4.089000 16.356001 # Ag
341 1 26.578501 4.089000 18.400499 # Ag
342 1 26.578501 6.133500 16.356001 # Ag
343 1 24.534000 6.133500 18.400499 # Ag
344 1 20.445000 4.089000 16.356001 # Ag
345 1 22.489500 4.089000 18.400499 # Ag
346 1 22.489500 6.133500 16.356001 # Ag
347 1 20.445000 6.133500 18.400499 # Ag
348 1 16.356001 4.089000 16.356001 # Ag
349 1 18.400499 4.089000 18.400499 # Ag
350 1 18.400499 6.133500 16.356001 # Ag
351 1 16.356001 6.133500 18.400499 # Ag
352 1 12.267000 4.089000 16.356001 # Ag
353 1 14.311500 4.089000 18.400499 # Ag
354 1 14.311500 6.133500 16.356001 # Ag
355 1 12.267000 6.133500 18.400499 # Ag
356 1 8.178000 4.089000 16.356001 # Ag
357 1 10.222500 4.089000 18.400499 # Ag
358 1 10.222500 6.133500 16.356001 # Ag
359 1 8.178000 6.133500 18.400499 # Ag
360 1 4.089000 4.089000 16.356001 # Ag
361 1 6.133500 4.089000 18.400499 # Ag
362 1 6.133500 6.133500 16.356001 # Ag
363 1 4.089000 6.133500 18.400499 # Ag
364 1 0.000000 4.089000 16.356001 # Ag
365 1 2.044500 4.089000 18.400499 # Ag
366 1 2.044500 6.133500 16.356001 # Ag
367 1 0.000000 6.133500 18.400499 # Ag
368 1 24.534000 0.000000 16.356001 # Ag
369 1 26.578501 0.000000 18.400499 # Ag
370 1 26.578501 2.044500 16.356001 # Ag
371 1 24.534000 2.044500 18.400499 # Ag
372 1 20.445000 0.000000 16.356001 # Ag
373 1 22.489500 0.000000 18.400499 # Ag
374 1 22.489500 2.044500 16.356001 # Ag
375 1 20.445000 2.044500 18.400499 # Ag
376 1 16.356001 0.000000 16.356001 # Ag
377 1 18.400499 0.000000 18.400499 # Ag
378 1 18.400499 2.044500 16.356001 # Ag
379 1 16.356001 2.044500 18.400499 # Ag
380 1 12.267000 0.000000 16.356001 # Ag
381 1 14.311500 0.000000 18.400499 # Ag
382 1 14.311500 2.044500 16.356001 # Ag
383 1 12.267000 2.044500 18.400499 # Ag
384 1 8.178000 0.000000 16.356001 # Ag
385 1 10.222500 0.000000 18.400499 # Ag
386 1 10.222500 2.044500 16.356001 # Ag
387 1 8.178000 2.044500 18.400499 # Ag
388 1 4.089000 0.000000 16.356001 # Ag
389 1 6.133500 0.000000 18.400499 # Ag
390 1 6.133500 2.044500 16.356001 # Ag
391 1 4.089000 2.044500 18.400499 # Ag
392 1 0.000000 0.000000 16.356001 # Ag
393 1 2.044500 0.000000 18.400499 # Ag
394 1 2.044500 2.044500 16.356001 # Ag
395 1 0.000000 2.044500 18.400499 # Ag
396 1 24.534000 24.534000 12.267000 # Ag
397 1 26.578501 24.534000 14.311500 # Ag
398 1 26.578501 26.578501 12.267000 # Ag
399 1 24.534000 26.578501 14.311500 # Ag
400 1 20.445000 24.534000 12.267000 # Ag
401 1 22.489500 24.534000 14.311500 # Ag
402 1 22.489500 26.578501 12.267000 # Ag
403 1 20.445000 26.578501 14.311500 # Ag
404 1 16.356001 24.534000 12.267000 # Ag
405 1 18.400499 24.534000 14.311500 # Ag
406 1 18.400499 26.578501 12.267000 # Ag
407 1 16.356001 26.578501 14.311500 # Ag
408 1 12.267000 24.534000 12.267000 # Ag
409 1 14.311500 24.534000 14.311500 # Ag
410 1 14.311500 26.578501 12.267000 # Ag
411 1 12.267000 26.578501 14.311500 # Ag
412 1 8.178000 24.534000 12.267000 # Ag
413 1 10.222500 24.534000 14.311500 # Ag
414 1 10.222500 26.578501 12.267000 # Ag
415 1 8.178000 26.578501 14.311500 # Ag
416 1 4.089000 24.534000 12.267000 # Ag
417 1 6.133500 24.534000 14.311500 # Ag
418 1 6.133500 26.578501 12.267000 # Ag
419 1 4.089000 26.578501 14.311500 # Ag
420 1 0.000000 24.534000 12.267000 # Ag
421 1 2.044500 24.534000 14.311500 # Ag
422 1 2.044500 26.578501 12.267000 # Ag
423 1 0.000000 26.578501 14.311500 # Ag
424 1 24.534000 20.445000 12.267000 # Ag
425 1 26.578501 20.445000 14.311500 # Ag
426 1 26.578501 22.489500 12.267000 # Ag
427 1 24.534000 22.489500 14.311500 # Ag
428 1 20.445000 20.445000 12.267000 # Ag
429 1 22.489500 20.445000 14.311500 # Ag
430 1 22.489500 22.489500 12.267000 # Ag
431 1 20.445000 22.489500 14.311500 # Ag
432 1 16.356001 20.445000 12.267000 # Ag
433 1 18.400499 20.445000 14.311500 # Ag
434 1 18.400499 22.489500 12.267000 # Ag
435 1 16.356001 22.489500 14.311500 # Ag
436 1 12.267000 20.445000 12.267000 # Ag
437 1 14.311500 20.445000 14.311500 # Ag
438 1 14.311500 22.489500 12.267000 # Ag
439 1 12.267000 22.489500 14.311500 # Ag
440 1 8.178000 20.445000 12.267000 # Ag
441 1 10.222500 20.445000 14.311500 # Ag
442 1 10.222500 22.489500 12.267000 # Ag
443 1 8.178000 22.489500 14.311500 # Ag
444 1 4.089000 20.445000 12.267000 # Ag
445 1 6.133500 20.445000 14.311500 # Ag
446 1 6.133500 22.489500 12.267000 # Ag
447 1 4.089000 22.489500 14.311500 # Ag
448 1 0.000000 20.445000 12.267000 # Ag
449 1 2.044500 20.445000 14.311500 # Ag
450 1 2.044500 22.489500 12.267000 # Ag
451 1 0.000000 22.489500 14.311500 # Ag
452 1 24.534000 16.356001 12.267000 # Ag
453 1 26.578501 16.356001 14.311500 # Ag
454 1 26.578501 18.400499 12.267000 # Ag
455 1 24.534000 18.400499 14.311500 # Ag
456 1 20.445000 16.356001 12.267000 # Ag
457 1 22.489500 16.356001 14.311500 # Ag
458 1 22.489500 18.400499 12.267000 # Ag
459 1 20.445000 18.400499 14.311500 # Ag
460 1 16.356001 16.356001 12.267000 # Ag
461 1 18.400499 16.356001 14.311500 # Ag
462 1 18.400499 18.400499 12.267000 # Ag
463 1 16.356001 18.400499 14.311500 # Ag
464 1 12.267000 16.356001 12.267000 # Ag
465 1 14.311500 16.356001 14.311500 # Ag
466 1 14.311500 18.400499 12.267000 # Ag
467 1 12.267000 18.400499 14.311500 # Ag
468 1 8.178000 16.356001 12.267000 # Ag
469 1 10.222500 16.356001 14.311500 # Ag
470 1 10.222500 18.400499 12.267000 # Ag
471 1 8.178000 18.400499 14.311500 # Ag
472 1 4.089000 16.356001 12.267000 # Ag
473 1 6.133500 16.356001 14.311500 # Ag
474 1 6.133500 18.400499 12.267000 # Ag
475 1 4.089000 18.400499 14.311500 # Ag
476 1 0.000000 16.356001 12.267000 # Ag
477 1 2.044500 16.356001 14.311500 # Ag
478 1 2.044500 18.400499 12.267000 # Ag
479 1 0.000000 18.400499 14.311500 # Ag
480 1 24.534000 12.267000 12.267000 # Ag
481 1 26.578501 12.267000 14.311500 # Ag
482 1 26.578501 14.311500 12.267000 # Ag
483 1 24.534000 14.311500 14.311500 # Ag
484 1 20.445000 12.267000 12.267000 # Ag
485 1 22.489500 12.267000 14.311500 # Ag
486 1 22.489500 14.311500 12.267000 # Ag
487 1 20.445000 14.311500 14.311500 # Ag
488 1 16.356001 12.267000 12.267000 # Ag
489 1 18.400499 12.267000 14.311500 # Ag
490 1 18.400499 14.311500 12.267000 # Ag
491 1 16.356001 14.311500 14.311500 # Ag
492 1 12.267000 12.267000 12.267000 # Ag
493 1 14.311500 12.267000 14.311500 # Ag
494 1 14.311500 14.311500 12.267000 # Ag
495 1 12.267000 14.311500 14.311500 # Ag
496 1 8.178000 12.267000 12.267000 # Ag
497 1 10.222500 12.267000 14.311500 # Ag
498 1 10.222500 14.311500 12.267000 # Ag
499 1 8.178000 14.311500 14.311500 # Ag
500 1 4.089000 12.267000 12.267000 # Ag
501 1 6.133500 12.267000 14.311500 # Ag
502 1 6.133500 14.311500 12.267000 # Ag
503 1 4.089000 14.311500 14.311500 # Ag
504 1 0.000000 12.267000 12.267000 # Ag
505 1 2.044500 12.267000 14.311500 # Ag
506 1 2.044500 14.311500 12.267000 # Ag
507 1 0.000000 14.311500 14.311500 # Ag
508 1 24.534000 8.178000 12.267000 # Ag
509 1 26.578501 8.178000 14.311500 # Ag
510 1 26.578501 10.222500 12.267000 # Ag
511 1 24.534000 10.222500 14.311500 # Ag
512 1 20.445000 8.178000 12.267000 # Ag
513 1 22.489500 8.178000 14.311500 # Ag
514 1 22.489500 10.222500 12.267000 # Ag
515 1 20.445000 10.222500 14.311500 # Ag
516 1 16.356001 8.178000 12.267000 # Ag
517 1 18.400499 8.178000 14.311500 # Ag
518 1 18.400499 10.222500 12.267000 # Ag
519 1 16.356001 10.222500 14.311500 # Ag
520 1 12.267000 8.178000 12.267000 # Ag
521 1 14.311500 8.178000 14.311500 # Ag
522 1 14.311500 10.222500 12.267000 # Ag
523 1 12.267000 10.222500 14.311500 # Ag
524 1 8.178000 8.178000 12.267000 # Ag
525 1 10.222500 8.178000 14.311500 # Ag
526 1 10.222500 10.222500 12.267000 # Ag
527 1 8.178000 10.222500 14.311500 # Ag
528 1 4.089000 8.178000 12.267000 # Ag
529 1 6.133500 8.178000 14.311500 # Ag
530 1 6.133500 10.222500 12.267000 # Ag
531 1 4.089000 10.222500 14.311500 # Ag
532 1 0.000000 8.178000 12.267000 # Ag
533 1 2.044500 8.178000 14.311500 # Ag
534 1 2.044500 10.222500 12.267000 # Ag
535 1 0.000000 10.222500 14.311500 # Ag
536 1 24.534000 4.089000 12.267000 # Ag
537 1 26.578501 4.089000 14.311500 # Ag
538 1 26.578501 6.133500 12.267000 # Ag
539 1 24.534000 6.133500 14.311500 # Ag
540 1 20.445000 4.089000 12.267000 # Ag
541 1 22.489500 4.089000 14.311500 # Ag
542 1 22.489500 6.133500 12.267000 # Ag
543 1 20.445000 6.133500 14.311500 # Ag
544 1 16.356001 4.089000 12.267000 # Ag
545 1 18.400499 4.089000 14.311500 # Ag
546 1 18.400499 6.133500 12.267000 # Ag
547 1 16.356001 6.133500 14.311500 # Ag
548 1 12.267000 4.089000 12.267000 # Ag
549 1 14.311500 4.089000 14.311500 # Ag
550 1 14.311500 6.133500 12.267000 # Ag
551 1 12.267000 6.133500 14.311500 # Ag
552 1 8.178000 4.089000 12.267000 # Ag
553 1 10.222500 4.089000 14.311500 # Ag
554 1 10.222500 6.133500 12.267000 # Ag
555 1 8.178000 6.133500 14.311500 # Ag
556 1 4.089000 4.089000 12.267000 # Ag
557 1 6.133500 4.089000 14.311500 # Ag
558 1 6.133500 6.133500 12.267000 # Ag
559 1 4.089000 6.133500 14.311500 # Ag
560 1 0.000000 4.089000 12.267000 # Ag
561 1 2.044500 4.089000 14.311500 # Ag
562 1 2.044500 6.133500 12.267000 # Ag
563 1 0.000000 6.133500 14.311500 # Ag
564 1 24.534000 0.000000 12.267000 # Ag
565 1 26.578501 0.000000 14.311500 # Ag
566 1 26.578501 2.044500 12.267000 # Ag
567 1 24.534000 2.044500 14.311500 # Ag
568 1 20.445000 0.000000 12.267000 # Ag
569 1 22.489500 0.000000 14.311500 # Ag
570 1 22.489500 2.044500 12.267000 # Ag
571 1 20.445000 2.044500 14.311500 # Ag
572 1 16.356001 0.000000 12.267000 # Ag
573 1 18.400499 0.000000 14.311500 # Ag
574 1 18.400499 2.044500 12.267000 # Ag
575 1 16.356001 2.044500 14.311500 # Ag
576 1 12.267000 0.000000 12.267000 # Ag
577 1 14.311500 0.000000 14.311500 # Ag
578 1 14.311500 2.044500 12.267000 # Ag
579 1 12.267000 2.044500 14.311500 # Ag
580 1 8.178000 0.000000 12.267000 # Ag
581 1 10.222500 0.000000 14.311500 # Ag
582 1 10.222500 2.044500 12.267000 # Ag
583 1 8.178000 2.044500 14.311500 # Ag
584 1 4.089000 0.000000 12.267000 # Ag
585 1 6.133500 0.000000 14.311500 # Ag
586 1 6.133500 2.044500 12.267000 # Ag
587 1 4.089000 2.044500 14.311500 # Ag
588 1 0.000000 0.000000 12.267000 # Ag
589 1 2.044500 0.000000 14.311500 # Ag
590 1 2.044500 2.044500 12.267000 # Ag
591 1 0.000000 2.044500 14.311500 # Ag
592 1 24.534000 24.534000 8.178000 # Ag
593 1 26.578501 24.534000 10.222500 # Ag
594 1 26.578501 26.578501 8.178000 # Ag
595 1 24.534000 26.578501 10.222500 # Ag
596 1 20.445000 24.534000 8.178000 # Ag
597 1 22.489500 24.534000 10.222500 # Ag
598 1 22.489500 26.578501 8.178000 # Ag
599 1 20.445000 26.578501 10.222500 # Ag
600 1 16.356001 24.534000 8.178000 # Ag
601 1 18.400499 24.534000 10.222500 # Ag
602 1 18.400499 26.578501 8.178000 # Ag
603 1 16.356001 26.578501 10.222500 # Ag
604 1 12.267000 24.534000 8.178000 # Ag
605 1 14.311500 24.534000 10.222500 # Ag
606 1 14.311500 26.578501 8.178000 # Ag
607 1 12.267000 26.578501 10.222500 # Ag
608 1 8.178000 24.534000 8.178000 # Ag
609 1 10.222500 24.534000 10.222500 # Ag
610 1 10.222500 26.578501 8.178000 # Ag
611 1 8.178000 26.578501 10.222500 # Ag
612 1 4.089000 24.534000 8.178000 # Ag
613 1 6.133500 24.534000 10.222500 # Ag
614 1 6.133500 26.578501 8.178000 # Ag
615 1 4.089000 26.578501 10.222500 # Ag
616 1 0.000000 24.534000 8.178000 # Ag
617 1 2.044500 24.534000 10.222500 # Ag
618 1 2.044500 26.578501 8.178000 # Ag
619 1 0.000000 26.578501 10.222500 # Ag
620 1 24.534000 20.445000 8.178000 # Ag
621 1 26.578501 20.445000 10.222500 # Ag
622 1 26.578501 22.489500 8.178000 # Ag
623 1 24.534000 22.489500 10.222500 # Ag
624 1 20.445000 20.445000 8.178000 # Ag
625 1 22.489500 20.445000 10.222500 # Ag
626 1 22.489500 22.489500 8.178000 # Ag
627 1 20.445000 22.489500 10.222500 # Ag
628 1 16.356001 20.445000 8.178000 # Ag
629 1 18.400499 20.445000 10.222500 # Ag
630 1 18.400499 22.489500 8.178000 # Ag
631 1 16.356001 22.489500 10.222500 # Ag
632 1 12.267000 20.445000 8.178000 # Ag
633 1 14.311500 20.445000 10.222500 # Ag
634 1 14.311500 22.489500 8.178000 # Ag
635 1 12.267000 22.489500 10.222500 # Ag
636 1 8.178000 20.445000 8.178000 # Ag
637 1 10.222500 20.445000 10.222500 # Ag
638 1 10.222500 22.489500 8.178000 # Ag
639 1 8.178000 22.489500 10.222500 # Ag
640 1 4.089000 20.445000 8.178000 # Ag
641 1 6.133500 20.445000 10.222500 # Ag
642 1 6.133500 22.489500 8.178000 # Ag
643 1 4.089000 22.489500 10.222500 # Ag
644 1 0.000000 20.445000 8.178000 # Ag
645 1 2.044500 20.445000 10.222500 # Ag
646 1 2.044500 22.489500 8.178000 # Ag
647 1 0.000000 22.489500 10.222500 # Ag
648 1 24.534000 16.356001 8.178000 # Ag
649 1 26.578501 16.356001 10.222500 # Ag
650 1 26.578501 18.400499 8.178000 # Ag
651 1 24.534000 18.400499 10.222500 # Ag
652 1 20.445000 16.356001 8.178000 # Ag
653 1 22.489500 16.356001 10.222500 # Ag
654 1 22.489500 18.400499 8.178000 # Ag
655 1 20.445000 18.400499 10.222500 # Ag
656 1 16.356001 16.356001 8.178000 # Ag
657 1 18.400499 16.356001 10.222500 # Ag
658 1 18.400499 18.400499 8.178000 # Ag
659 1 16.356001 18.400499 10.222500 # Ag
660 1 12.267000 16.356001 8.178000 # Ag
661 1 14.311500 16.356001 10.222500 # Ag
662 1 14.311500 18.400499 8.178000 # Ag
663 1 12.267000 18.400499 10.222500 # Ag
664 1 8.178000 16.356001 8.178000 # Ag
665 1 10.222500 16.356001 10.222500 # Ag
666 1 10.222500 18.400499 8.178000 # Ag
667 1 8.178000 18.400499 10.222500 # Ag
668 1 4.089000 16.356001 8.178000 # Ag
669 1 6.133500 16.356001 10.222500 # Ag
670 1 6.133500 18.400499 8.178000 # Ag
671 1 4.089000 18.400499 10.222500 # Ag
672 1 0.000000 16.356001 8.178000 # Ag
673 1 2.044500 16.356001 10.222500 # Ag
674 1 2.044500 18.400499 8.178000 # Ag
675 1 0.000000 18.400499 10.222500 # Ag
676 1 24.534000 12.267000 8.178000 # Ag
677 1 26.578501 12.267000 10.222500 # Ag
678 1 26.578501 14.311500 8.178000 # Ag
679 1 24.534000 14.311500 10.222500 # Ag
680 1 20.445000 12.267000 8.178000 # Ag
681 1 22.489500 12.267000 10.222500 # Ag
682 1 22.489500 14.311500 8.178000 # Ag
683 1 20.445000 14.311500 10.222500 # Ag
684 1 16.356001 12.267000 8.178000 # Ag
685 1 18.400499 12.267000 10.222500 # Ag
686 1 18.400499 14.311500 8.178000 # Ag
687 1 16.356001 14.311500 10.222500 # Ag
688 1 12.267000 12.267000 8.178000 # Ag
689 1 14.311500 12.267000 10.222500 # Ag
690 1 14.311500 14.311500 8.178000 # Ag
691 1 12.267000 14.311500 10.222500 # Ag
692 1 8.178000 12.267000 8.178000 # Ag
693 1 10.222500 12.267000 10.222500 # Ag
694 1 10.222500 14.311500 8.178000 # Ag
695 1 8.178000 14.311500 10.222500 # Ag
696 1 4.089000 12.267000 8.178000 # Ag
697 1 6.133500 12.267000 10.222500 # Ag
698 1 6.133500 14.311500 8.178000 # Ag
699 1 4.089000 14.311500 10.222500 # Ag
700 1 0.000000 12.267000 8.178000 # Ag
701 1 2.044500 12.267000 10.222500 # Ag
702 1 2.044500 14.311500 8.178000 # Ag
703 1 0.000000 14.311500 10.222500 # Ag
704 1 24.534000 8.178000 8.178000 # Ag
705 1 26.578501 8.178000 10.222500 # Ag
706 1 26.578501 10.222500 8.178000 # Ag
707 1 24.534000 10.222500 10.222500 # Ag
708 1 20.445000 8.178000 8.178000 # Ag
709 1 22.489500 8.178000 10.222500 # Ag
710 1 22.489500 10.222500 8.178000 # Ag
711 1 20.445000 10.222500 10.222500 # Ag
712 1 16.356001 8.178000 8.178000 # Ag
713 1 18.400499 8.178000 10.222500 # Ag
714 1 18.400499 10.222500 8.178000 # Ag
715 1 16.356001 10.222500 10.222500 # Ag
716 1 12.267000 8.178000 8.178000 # Ag
717 1 14.311500 8.178000 10.222500 # Ag
718 1 14.311500 10.222500 8.178000 # Ag
719 1 12.267000 10.222500 10.222500 # Ag
720 1 8.178000 8.178000 8.178000 # Ag
721 1 10.222500 8.178000 10.222500 # Ag
722 1 10.222500 10.222500 8.178000 # Ag
723 1 8.178000 10.222500 10.222500 # Ag
724 1 4.089000 8.178000 8.178000 # Ag
725 1 6.133500 8.178000 10.222500 # Ag
726 1 6.133500 10.222500 8.178000 # Ag
727 1 4.089000 10.222500 10.222500 # Ag
728 1 0.000000 8.178000 8.178000 # Ag
729 1 2.044500 8.178000 10.222500 # Ag
730 1 2.044500 10.222500 8.178000 # Ag
731 1 0.000000 10.222500 10.222500 # Ag
732 1 24.534000 4.089000 8.178000 # Ag
733 1 26.578501 4.089000 10.222500 # Ag
734 1 26.578501 6.133500 8.178000 # Ag
735 1 24.534000 6.133500 10.222500 # Ag
736 1 20.445000 4.089000 8.178000 # Ag
737 1 22.489500 4.089000 10.222500 # Ag
738 1 22.489500 6.133500 8.178000 # Ag